LAMMPS (12 Dec 2018)
Reading data file ...
  orthogonal box = (-42.4782 -42.4782 -42.4782) to (42.4782 42.4782 42.4782)
  2 by 4 by 4 MPI processor grid
  reading atoms ...
  32000 atoms
Neighbor list info ...
  update every 1 steps, delay 10 steps, check yes
  max neighbors/atom: 2000, page size: 100000
  master list distance cutoff = 8.5
  ghost atom cutoff = 8.5
  binsize = 4.25, bins = 20 20 20
  1 neighbor lists, perpetual/occasional/extra = 1 0 0
  (1) pair eam/alloy, perpetual
      attributes: half, newton on
      pair build: half/bin/atomonly/newton
      stencil: half/bin/3d/newton
      bin: standard
Setting up Verlet run ...
  Unit style    : metal
  Current step  : 0
  Time step     : 0.001
Per MPI rank memory allocation (min/avg/max) = 3.12 | 3.125 | 3.127 Mbytes
Step Temp KinEng PotEng TotEng Enthalpy Press Volume Pxx Pyy Pzz Pyz Pxz Pxy 
       0            0            0   -131723.14   -131723.14   -116949.73    38601.284    613181.97    38066.619    37907.669    39829.564   -701.57148   -375.35362   -557.04806 
     100    1812.0591    7495.0304   -139400.83    -131905.8   -130323.91    4137.7181    612526.17    3590.8542    4556.1049    4266.1954   -582.06393     261.6767   -21.615291 
     200    1868.7575    7729.5463   -139756.98   -132027.44    -131922.3     272.8275    617433.02    254.15724    168.60157     395.7237   -253.07273   -468.40714   -34.146039 
     300    1856.8833    7680.4323   -139940.98   -132260.55   -132304.93   -115.17538    617362.56   -790.98716   -105.82936    551.29037    8.0285774   -123.62156    78.763215 
     400     1852.556    7662.5336   -140163.71   -132501.17   -132617.62   -302.47415     616810.7   -395.35698   -720.80716    208.74169   -211.88199    408.25822   -136.47741 
     500    1821.5659    7534.3523   -140275.83   -132741.48   -132397.41    895.74482    615415.42    331.32878    827.50932    1528.3964    6.4267195   -840.37444    727.96181 
     600    1820.6561    7530.5894   -140502.99    -132972.4   -132848.67     322.5974    614532.65    350.43443    69.919265    547.43851    14.992233   -674.05936   -361.48261 
     700    1785.3209    7384.4359   -140580.17   -133195.73   -133227.97    -84.08711    614319.36   -538.07199    339.38623   -53.575573   -200.38438   -486.45768   -185.40759 
     800     1770.777    7324.2797   -140725.76   -133401.48   -133655.87   -664.08717    613748.45   -612.06209   -369.25425   -1010.9452   -186.38822    134.29408   -319.80486 
     900    1754.8816    7258.5331   -140854.18   -133595.65   -133234.06    946.14049    612310.08    912.26408    1312.2181    613.93932    470.82049   -5.0993322   -375.66368 
    1000    1731.7704    7162.9409   -140933.71   -133770.77   -133279.44    1286.7054    611792.47    1242.4673    1575.9901    1041.6588    408.65008    113.09262   -46.643791 
    1100    1728.6325    7149.9616   -141070.35   -133920.38   -134477.67   -1457.4965    612609.69   -1514.2111   -964.51082   -1893.7676    237.42977   -215.66566    250.13715 
    1200    1719.7004    7113.0168   -141172.98   -134059.96   -134709.46   -1699.5762    612278.58   -1592.4703   -1505.8876   -2000.3707    907.61851   -386.11367    433.50517 
    1300    1703.2884    7045.1337   -141231.18   -134186.04   -134059.18    332.76762    610792.28    290.41385    398.86472    309.02429    176.68341    522.97422    16.768784 
    1400    1697.4913    7021.1558   -141307.64   -134286.49   -134112.82    456.12733    610019.76    -98.25549     296.7892    1169.8483    96.540364    187.47432     147.9476 
    1500    1679.1821    6945.4253    -141304.7   -134359.27   -134313.51    120.13458    610239.75   -251.43603   -232.93798    844.77774    527.12192   -15.586991    367.98155 
    1600     1690.301    6991.4151   -141388.28   -134396.87   -134624.88   -598.62527    610260.22    -698.0605   -195.23575   -902.57958    6.0819927    158.60979   -134.35307 
    1700    1689.2427    6987.0379   -141400.22   -134413.19   -134141.35    714.68203    609401.45    832.08452    796.46222    515.49935    450.75516   -78.647374    184.78856 
    1800    1696.9383    7018.8683   -141421.84   -134402.97   -133516.09     2335.662    608364.11     2430.499    2036.2945    2540.1926    489.94438   -343.86705    153.52681 
    1900    1686.8498    6977.1404   -141351.64    -134374.5   -134406.47   -83.953778    610140.15   -367.63894    265.24771   -149.47011   -31.810188   -660.02336   -187.09832 
    2000    1687.8354    6981.2172   -141310.18   -134328.96   -134745.26   -1091.3672     611142.8   -912.96952   -1163.3496   -1197.7826   -237.86563    50.872448   -60.536445 
    2100    1709.3716    7070.2949   -141351.96   -134281.67   -134338.16    -148.2669    610446.14   -441.71192    822.20608   -825.29486   -42.798715    162.05916    318.88737 
    2200    1713.1043    7085.7339   -141341.51   -134255.77    -133732.5    1375.1419     609663.7    1627.8075    1364.9543     1132.664     418.7965    124.17196    272.43866 
    2300    1720.8473    7117.7605   -141374.72   -134256.96   -134118.99    362.34428    610068.11    370.11334    367.49594    349.42357    663.70908    219.66112    524.93802 
    2400    1699.7598    7030.5386   -141314.21   -134283.67   -134719.71   -1142.9686    611229.52   -978.74651   -1203.9791   -1246.1801    817.16174    25.775811    34.031355 
    2500    1698.9964    7027.3809   -141346.85   -134319.46   -134730.26   -1077.2191    610993.01   -1181.1758   -1068.6887   -981.79288   -122.20814   -352.01674    -365.6068 
    2600    1701.8704    7039.2686   -141396.18   -134356.91   -134195.72      423.383    609987.33    819.44277    326.95008    123.75613   -152.73302   -41.657349   -466.99021 
    2700    1697.1695    7019.8246   -141417.93   -134398.11   -133996.34    1056.1551    609467.47    875.43157    907.00895    1386.0249   -5.2002414   -232.44439     -198.848 
    2800     1695.643    7013.5108   -141444.91    -134431.4   -134534.15   -269.84798    610038.89   -782.90926    370.39869   -397.03336    -50.31362    275.65979    68.430306 
    2900    1691.7777     6997.523   -141443.69   -134446.17   -135013.14   -1487.2311    610790.51   -1744.2698   -1108.8916    -1608.532   -115.94957    186.29942    689.38181 
    3000    1686.5408    6975.8623    -141427.5   -134451.64   -134693.34   -634.26283    610543.82   -1288.1016   -190.39287   -424.29397   -178.64317   -88.541143    95.250763 
    3100    1693.5365     7004.798   -141451.86   -134447.06   -134148.57    784.50391    609591.22     485.4868    725.06807    1142.9569   -407.03438    116.53776    110.74544 
    3200    1714.7197    7092.4155   -141520.07   -134427.65   -134148.35    734.62342    609136.64    419.77753    1061.6449    722.44782    133.14956    670.01949    167.62891 
    3300    1696.8607    7018.5474   -141430.02   -134411.47   -134450.89   -103.54138    609961.53    598.45257   -534.70943   -374.36729    195.13773   -67.509261    323.98579 
    3400    1693.5907    7005.0221   -141393.56   -134388.54   -134789.92   -1052.6961    610900.64   -1136.6363   -1274.5416    -746.9105    35.134359    153.17557   -367.65048 
    3500    1715.7098    7096.5111   -141458.61    -134362.1   -134788.77   -1119.7985    610472.05   -844.44986   -1802.7845   -712.16107    51.381699    346.78947    226.58302 
    3600    1710.4931    7074.9337   -141429.96   -134355.02   -133422.98    2454.1257    608483.51    2239.3396    2216.9665    2906.0711   -253.78311    630.86667   -119.57633 
    3700    1710.3438    7074.3163   -141437.61   -134363.29   -133989.43    983.03905    609330.15    899.17804    1336.3514    713.58771   -104.81297   -123.54171    82.975941 
    3800    1689.6767    6988.8331   -141365.84   -134377.01   -134356.58    53.612455    610526.63   -596.81252     -1.62453    759.27441   -258.43324    94.542006   -234.31449 
    3900    1694.1158    7007.1939   -141391.26   -134384.07   -134644.11   -682.38684    610546.91   -336.21662   -601.02122   -1109.9227   -351.02561   -103.48856    43.131221 
    4000    1687.8042    6981.0879   -141369.94   -134388.86   -134564.21    -460.2427    610429.14   -906.48484    -477.3368    3.0935335     343.3639   -181.71588   -129.14289 
    4100     1702.163    7040.4788   -141421.98   -134381.51      -134524   -374.02963    610396.14   -765.85101   -389.14826    32.910371   -90.618431    59.810671    305.22672 
    4200    1703.3567    7045.4163   -141421.23   -134375.81   -133946.44    1128.6842    609500.21    1427.7322    1982.5253   -24.204782    154.96169   -707.59193    229.43659 
    4300    1707.6793     7063.295   -141439.19   -134375.89   -133562.28    2141.2351    608788.99    2603.5911    1895.7567    1924.3576   -262.73936    -251.9685    -72.51421 
    4400    1712.7985    7084.4691   -141458.11   -134373.64   -134462.95   -234.39826    610440.39   -210.31658   -680.37957    187.50137   -47.178214    25.995533    397.83969 
    4500    1700.6839    7034.3608   -141416.85   -134382.49   -134899.47   -1355.1438    611219.21   -1687.3942   -1204.8183    -1173.219    460.92865   -356.77432    203.70722 
    4600    1703.8142    7047.3085    -141439.8   -134392.49   -134297.45    249.63235     609978.3    989.36632   -395.75493    155.28566    220.35701    -484.0962   -439.85608 
    4700    1693.4969    7004.6339   -141404.88   -134400.24   -134048.11     925.5537    609561.17    1224.3469    153.30359    1399.0106   -5.8690096   -138.53222    622.14234 
    4800    1693.3083    7003.8541   -141403.47   -134399.62    -134412.6   -34.093602    610160.38    749.94187   -1138.3254    286.10273    385.24842   -456.17963    76.504444 
    4900    1707.7097    7063.4208   -141451.83   -134388.41    -134678.6    -761.6313    610436.71   -648.91417   -593.50979   -1042.4699   -99.486623   -537.31659     103.5839 
    5000     1690.286    6991.3531   -141376.04   -134384.69   -134923.53   -1412.2504    611302.95   -1726.2845   -1180.5649   -1329.9017    232.33425    211.63131    539.98431 
    5100    1695.3601    7012.3408   -141387.11   -134374.76   -134097.56    728.25802    609849.81    90.501812    1231.5354    862.73688   -893.81343   -63.825394    741.33909 
    5200    1703.0614    7044.1948   -141408.15   -134363.95    -133784.8    1523.3448    609121.87    1623.0621    2166.4488    780.52337    -773.9991   -371.60763    85.557543 
    5300    1701.3623     7037.167   -141394.29   -134357.13   -134550.07   -506.24746    610636.22   -704.95771   -673.40395   -140.38072   -465.85375   -331.92224    247.97681 
    5400    1710.6024    7075.3856   -141426.43   -134351.04   -134846.45   -1299.1909    610945.26    -895.3065   -2017.3715   -984.89482    71.688189    270.93532    75.227597 
    5500      1705.15    7052.8335   -141417.62   -134364.78   -134564.62   -524.31812    610651.67   -60.769284    -1093.439   -418.74605   -686.17822     73.80408    142.73271 
    5600    1704.1948    7048.8825   -141440.16   -134391.28   -133837.14    1457.7941    609013.73    933.45292     1751.248    1688.6815   -207.03428     10.65595     253.3485 
    5700    1699.8851    7031.0568   -141454.27   -134423.21   -134201.49    582.77118    609551.45   -114.21655    1307.8725    554.65761    36.266701    18.043586   -64.019381 
    5800    1692.8522    7001.9672   -141439.93   -134437.96   -134422.35    41.003793    610074.19    610.67655    159.92956   -647.59473    -499.4912    39.743911   -350.54081 
    5900    1696.9706    7019.0021   -141450.54   -134431.54   -134772.48   -894.47044    610691.01   -120.62235   -1188.9877   -1373.8012   -279.19398    190.91398    426.56795 
    6000    1695.3857    7012.4466   -141429.81   -134417.36   -134192.54    590.60372    609879.62    995.17289    386.92244    389.71582   -1319.8001   -273.92779   -126.89094 
    6100    1701.4115    7037.3704   -141433.62   -134396.25   -133628.18    2021.7335    608675.44    2140.6761    2078.2408    1846.2837   -124.15089    26.528923   -163.61118 
    6200    1702.3618    7041.3011   -141415.64   -134374.34    -134148.6    593.11777    609788.47    238.50545    741.71205     799.1358   -425.75394    156.89499    103.24678 
    6300    1717.3615    7103.3426   -141463.01   -134359.67   -134832.14   -1239.2843    610828.85   -1237.5602   -1796.4636   -683.82922    -287.5235    -701.9461    430.44201 
    6400    1699.0335    7027.5344   -141394.41   -134366.88   -134417.96   -134.06255    610435.45    473.09609   -321.95528   -553.32845   -88.123144   -731.32082   -117.72513 
    6500     1697.612    7021.6551   -141410.14   -134388.48   -134149.99    626.55564    609850.38    882.62909    847.16524    149.87258   -32.526454   -58.531152    -178.7003 
    6600    1686.7708    6976.8136   -141391.38   -134414.57   -134543.78   -339.13123    610437.99   -780.81441   -366.07772    129.49843    672.94554   -736.81826    79.959354 
    6700    1701.0362     7035.818   -141458.82      -134423   -135160.98   -1935.2238    610967.71   -2215.6496   -1991.1874   -1598.8345   -226.79132   -434.80872    83.297134 
    6800    1684.1565    6966.0004   -141395.28   -134429.28   -134590.54   -423.24295    610431.92   -424.11392   -954.82485    109.20993   -443.65497   -732.93607   -704.18494 
    6900    1695.1406    7011.4328    -141435.9   -134424.47   -134102.41    846.64217    609465.81    369.20404    1184.6913    986.03117    237.57747    387.67192    237.08443 
    7000    1702.1525    7040.4355   -141453.22   -134412.78   -134159.63    665.34941    609593.71    552.78894    82.918163    1360.3411    135.85117    173.66756    425.71561 
    7100    1708.1626    7065.2941   -141463.01   -134397.72   -134862.47   -1219.0111    610839.51   -1986.2602   -1558.7054   -112.06765    189.36039   -579.06159    518.21198 
    7200    1711.4184    7078.7608   -141469.43   -134390.67   -134622.17    -607.7472    610309.21   -935.82395   -533.78904   -353.62862    435.89818   -462.98981   -531.23085 
    7300    1696.9256    7018.8158   -141417.23   -134398.41   -133601.86    2095.6621    608976.83     1901.465    2649.1413      1736.38   -424.31626   -306.43347   -325.58586 
    7400    1705.4411    7054.0375   -141466.82   -134412.79   -134198.95    562.15042    609457.51     528.0181    996.95909    161.47408    259.67521   -4.3345529    123.50764 
    7500    1698.3966    7024.9002   -141464.56   -134439.66   -134698.93   -680.71481    610232.77   -1089.9766   -253.93255    -698.2353    441.88269    14.809238   -361.79123 
    7600    1682.6983    6959.9688    -141422.9   -134462.93   -134694.65   -608.47653    610139.98    -1082.669   -162.85701   -579.90361    186.01525    252.17057    -707.0167 
    7700     1688.964    6985.8849   -141456.32   -134470.43   -134746.36   -724.17377    610454.41   -882.66962    -1418.121     128.2693     160.9218    119.29831   -20.320297 
    7800    1684.6902    6968.2077   -141442.27   -134474.06   -134884.32   -1076.2675    610727.27   -1114.0173   -1642.9955   -471.78974     254.7146    52.950611   -7.2262145 
    7900    1683.9543    6965.1642   -141428.78   -134463.62   -134681.69   -572.26553    610545.28   -207.84963   -1058.0655   -450.88146   -141.70564     118.0399   -221.74473 
    8000    1702.5461    7042.0633   -141476.77   -134434.71   -134265.22    445.45227    609612.87    1188.1047    59.831489    88.420656    251.47523    293.20089   -168.41407 
    8100    1702.3858    7041.4001   -141449.42   -134408.02   -133732.62     1776.556    609108.08    2017.9884    1689.0804    1622.5993    764.84833    344.34202   -209.15009 
    8200    1708.9242    7068.4442   -141449.96   -134381.52   -134205.29    463.16492    609626.77    451.62287    1192.5622   -254.69028    435.52462   -258.78085   -220.96102 
    8300    1705.3596    7053.7004   -141407.31   -134353.61    -134715.1    -948.0365    610914.22   -627.17624   -1026.1487   -1190.7846    397.16497   -465.04801   -54.476493 
    8400    1709.5757    7071.1391   -141403.02   -134331.88   -134403.06   -186.82193    610447.21    118.79304   -378.66373    -300.5951    125.99899   -222.75261    141.12491 
    8500    1706.3874    7057.9516   -141382.79   -134324.84   -134113.88    554.09759    610006.11    914.16634    630.19037    117.93605    581.05698   -214.13062   -502.26018 
    8600    1716.0816    7098.0487   -141432.36   -134334.31   -134028.81    802.72383    609753.31    917.62239    1033.4599    457.08922    432.59003   -235.64934   -451.53943 
    8700    1705.9124     7055.987   -141417.45   -134361.47   -134191.05    447.65374    609941.61    678.48648    680.89881   -16.424074   -319.26448    171.24138   -179.95765 
    8800    1695.1301    7011.3894   -141398.04   -134386.65   -135053.11   -1746.0025    611557.74   -1683.9223   -938.38959   -2615.6957   -144.63315   -442.55953   -263.32707 
    8900    1699.0041     7027.413    -141439.1   -134411.69   -135069.34   -1724.1729    611123.73   -1891.2678   -1519.9187   -1761.3321    395.94244   -312.13849    447.71413 
    9000    1693.4823    7004.5735   -141447.56   -134442.99   -134320.73    321.16626    609883.82    165.77098    346.86586    450.86194   -214.34514   -123.49448    -178.3521 
    9100    1689.5434    6988.2816   -141455.86   -134467.58   -134167.53    788.92796    609340.14    254.10471    1170.5205     942.1587   -225.40937    163.58509   -64.712217 
    9200    1685.7011    6972.3893   -141440.06   -134467.67   -134268.71    523.01631    609479.06   -80.410239    589.30628    1060.1529    192.52339    -329.9222   -501.88074 
    9300     1699.503    7029.4765   -141465.23   -134435.75   -134596.78   -422.68794    610377.03   -979.91069   -92.076219   -196.07691   -184.10876   -123.07487   -529.63394 
    9400     1712.178    7081.9027   -141489.21   -134407.31   -134661.58   -667.38073    610424.76   -1270.3611    203.70601   -935.48714    436.55306   -649.98715    -389.4949 
    9500    1698.7419    7026.3283   -141427.53    -134401.2   -134098.14    796.03073    609984.77    1047.7977    836.65744     503.6371   -63.657059    608.57298   -423.93389 
    9600     1700.491    7033.5628   -141437.13   -134403.56   -133652.17    1976.9831     608939.5    1845.1892    2137.8168    1947.9432    120.13004     -77.1318   -176.40054 
    9700    1696.0584     7015.229   -141425.66   -134410.43   -134282.71     335.4935    609925.39    145.26416    675.01163     186.2047    -367.9148     101.6103   -96.315339 
    9800     1720.828    7117.6809   -141534.57   -134416.89    -134940.9    -1374.946    610616.13   -1245.5249   -1582.4184   -1296.8947   -598.59018   -123.88079   -27.798733 
    9900    1705.5509    7054.4918   -141502.91   -134448.41   -134399.24     129.2105    609703.28    414.25437     352.4798   -379.10267   -352.19698    264.60176   -609.47447 
   10000    1700.1197    7032.0272    -141509.6   -134477.57   -134025.14    1190.0231    609120.27    1164.7999    783.99294    1621.2764   -423.08549    110.77426   -87.184147 
   10100    1698.2975    7024.4901   -141519.28   -134494.79   -134492.77    5.3068779     609757.7   -185.07028    558.95486   -357.96394   -313.69189   -45.707728   -147.94642 
   10200    1695.3092    7012.1302   -141515.13      -134503   -134419.48    219.49486     609610.6    35.151021    1091.8454   -468.51186   -328.14026     221.4726     482.3945 
   10300     1694.555    7009.0108   -141520.13   -134511.12   -135005.08   -1296.3115    610512.58   -1092.1662   -1124.5194    -1672.249    371.30379    329.44586    642.86031 
   10400    1695.1419    7011.4381   -141523.97   -134512.53   -135041.15   -1387.2623    610512.78   -1387.7602   -1114.8855   -1659.1411    188.85329    51.168188    186.22047 
   10500    1699.8333    7030.8428   -141530.33   -134499.49   -134050.46    1181.4508    608935.23    1007.2163    1121.7024    1415.4337    274.34501    244.81394    249.42196 
   10600     1701.308    7036.9425    -141499.7   -134462.76   -133779.28    1799.4592    608547.12     1711.365    1453.0688    2233.9437    -349.9465    521.49243    390.55867 
   10700    1713.3118    7086.5922    -141504.7   -134418.11   -134250.78    439.66453    609760.47    193.94867     622.2431    502.80183    136.85057    60.413459    126.70583 
   10800    1699.6699    7030.1666   -141427.06   -134396.89   -134486.32   -234.70899    610475.49     80.13911   -74.193242   -710.07283   -124.07618    296.54956    266.34008 
   10900    1706.1684    7057.0458   -141443.05   -134386.01   -134766.09   -997.10196    610734.21    -957.5305   -837.52541     -1196.25    815.71823    191.23623    11.221504 
   11000    1703.8373    7047.4038   -141433.21   -134385.81    -134353.3    85.383396    610100.29    750.30473   -428.55837   -65.596178    152.47724     410.9861   0.07447157 
   11100    1705.3749    7053.7637   -141452.76      -134399   -133834.16    1485.8353    609062.36    2433.2879    730.70924    1293.5087   -456.55817      306.556    547.91706 
   11200    1709.3284    7070.1164    -141502.8   -134432.69   -134366.73    173.28824    609789.11    468.56457   -385.33156     436.6317    461.89046   -167.81735   -136.93396 
   11300    1695.6192    7013.4125   -141490.05   -134476.63   -134960.08   -1268.5407    610593.33    -1375.228   -1553.1493   -877.24474    378.75265    245.77266   -699.17926 
   11400    1685.8474    6972.9941   -141468.39   -134495.39   -134908.39   -1083.7276    610573.89   -945.86424   -805.84038    -1499.478    272.46459    466.81363   -490.88841 
   11500    1682.7558    6960.2066   -141447.49   -134487.28   -133983.08     1326.129     609160.2    1253.4063    1221.4799    1503.5008  -0.90280846    201.81935    9.2025105 
   11600    1705.1782    7052.9501   -141518.06   -134465.11   -134029.42    1145.8901    609178.25     1652.953    660.00634     1124.711    800.99204   -67.538866    268.88545 
   11700    1699.3617    7028.8921   -141476.95   -134448.06      -134534   -225.64072    610264.12   -563.62372   -212.36517    99.066747   -325.93962    149.46593     112.2259 
   11800    1708.0799    7064.9523    -141497.1   -134432.14   -134993.05   -1470.7024    611049.07    -1825.091   -1378.9767   -1208.0394    95.270829    156.87139   -31.216744 
   11900    1702.6816     7042.624   -141471.55   -134428.93   -134552.98   -325.55315    610508.53   -1055.1811   -138.85704     217.3787    547.08346   -192.58349   -649.94884 
   12000    1699.7101    7030.3331    -141468.2   -134437.87    -134019.2    1100.4215    609568.19    719.13037     1488.848    1093.2862   -37.338121   -449.90612   -472.00517 
   12100    1702.6202    7042.3697   -141501.72   -134459.35   -134323.05    358.29097    609495.74    70.347211     574.0284    430.49729   -94.914064   -920.27241   -803.46114 
   12200    1693.9966     7006.701   -141513.44   -134506.74   -134787.05   -735.95118    610227.86   -983.89979    47.241718   -1271.1955   -92.620436     81.78282    101.54538 
   12300    1689.3835    6987.6201   -141534.35   -134546.73   -134682.91    -357.5825    610152.73   -423.08257   -567.38058    -82.28434   -612.62097    292.45487   -58.140639 
   12400    1680.5963    6951.2746   -141508.82   -134557.55   -134225.69    872.75468    609221.62    631.40004    1151.7531    835.11091    11.789293    683.98521   -436.14034 
   12500    1690.5409    6992.4073   -141538.14   -134545.74    -134559.7   -36.715051    609499.95    -79.26402    289.55699   -320.43812   -54.727903    776.83198   -268.70129 
   12600    1698.7373    7026.3094   -141545.52   -134519.21   -134634.91   -303.98812     609801.9   -601.50898   -376.15854    65.703156    34.734713   -77.400039    352.77273 
   12700    1685.7713    6972.6795   -141468.39   -134495.71   -135020.12   -1375.3629    610884.78   -1905.6107   -1388.6978   -831.78032   -105.95319    579.58051   -154.97331 
   12800    1697.3095    7020.4038   -141490.47   -134470.07   -134283.38    490.51785    609790.45    432.38669    641.56609    397.60076    132.20764      -337.56   -195.30379 
   12900    1695.6395    7013.4963   -141464.22   -134450.72   -133966.85    1271.7895    609581.88    1001.3228    1482.6769    1331.3686   -25.961643   -307.01287   -309.67739 
   13000    1705.7256    7055.2144   -141488.11    -134432.9   -134557.21    -326.3152    610355.38   -289.97547    -441.7931   -247.17704    440.67273   -323.16954    496.96541 
   13100    1706.2861    7057.5326   -141480.51   -134422.98   -135156.39   -1922.2865    611279.83    -2152.165    -1947.373   -1667.3214    78.985634    249.70719   -62.730725 
   13200    1698.6216     7025.831   -141448.99   -134423.16   -134211.58    555.72981    609968.31    1259.3095    454.52919   -46.649239   -79.808117    411.12177   -361.93546 
   13300    1698.3499    7024.7072   -141448.81   -134424.11   -133896.26     1387.838    609362.25    1664.2156    1171.6783    1327.6201   -91.191751    277.53458   -25.880218 
   13400     1709.165    7069.4402   -141495.84    -134426.4   -134508.27     -215.073    609927.71   -141.66767     -276.923   -226.62832   -160.56753   -79.233772    31.978872 
   13500    1698.8694    7026.8559    -141475.9   -134449.05    -134760.8   -818.23082     610436.5   -675.85962     14.35065   -1793.1835    448.52658   -418.47638   -206.54812 
   13600    1700.8601    7035.0897   -141523.14   -134488.05   -134277.39    553.72759    609536.03    795.93204    1179.4963    -314.2456    137.51537   -206.45944    83.619726 
   13700    1703.5639    7046.2731   -141568.36   -134522.09   -134074.85    1177.0207       608779    1132.3223    1637.8998    760.83981   -192.21644    17.149538   -211.37595 
   13800    1685.6747    6972.2797   -141515.11   -134542.83   -134301.65    634.18708    609300.76   -137.75574    1132.4774    907.83961   -390.41312    515.40302    504.02762 
   13900    1687.0387    6977.9215   -141517.65   -134539.73    -134987.2    -1174.484     610422.5   -1938.1435   -522.58381   -1062.7247   -274.20475    529.09726    89.687682 
   14000     1699.981    7031.4534   -141544.74   -134513.29    -134680.1   -438.09957    610055.02   -772.49487   -26.353703   -515.45013     87.70574   -265.48568    111.14499 
   14100    1700.2921    7032.7403   -141511.84    -134479.1   -133897.38    1530.8506    608830.19    1478.4165    2189.1512     924.9841   -149.76966    191.74563   -108.87221 
   14200    1686.6074    6976.1379   -141435.03   -134458.89   -134446.15    33.452443    610219.04   -558.83886    406.52735    252.66884   -267.83372    95.293766   -471.01745 
   14300    1705.5984     7054.688   -141496.32   -134441.63   -135021.47   -1520.6926    610913.31   -1968.7804   -886.19765   -1707.0996    160.14818   -225.87981    198.33733 
   14400    1703.2387    7044.9281    -141486.1   -134441.17   -134634.17   -506.64393    610342.02   -494.02972    55.617153   -1081.5192   -402.69498   -181.45915   -167.03413 
   14500    1683.0427    6961.3933   -141409.88   -134448.49   -133927.51    1369.0501    609696.96    1580.2016    1840.2138    686.73493    150.44307    13.580994    37.956259 
   14600    1705.6641      7054.96   -141500.85   -134445.89   -134479.15   -87.348646    610036.89   -314.43924    330.90795   -278.51465   -110.83164   -728.23611   -32.111568 
   14700     1692.708    7001.3711   -141449.51   -134448.14   -135220.05   -2022.1873    611580.76   -1562.3914   -2027.2774    -2476.893   -230.98027   -72.727695    91.455394 
   14800    1702.6509    7042.4967   -141491.71   -134449.22   -134684.39   -617.35507    610330.16    27.816323    -1142.352   -737.52954     234.6936   -434.39989   -301.31243 
   14900    1702.4222     7041.551   -141498.63   -134457.08   -134064.64    1031.8183    609371.27    1125.6272     903.3512    1066.4764   -232.24887    43.196603    237.17072 
   15000     1696.684    7017.8164   -141492.93   -134475.12    -134142.1    875.61416    609344.65     796.2584    974.68618    855.89789    134.00022    -119.7093    33.041852 
   15100    1698.6512    7025.9534   -141513.65    -134487.7   -134869.06   -1000.8962    610458.92   -1068.7207   -955.40332   -978.56446   -60.893973   -718.33113    31.469393 
   15200     1687.785    6981.0087   -141471.24   -134490.23   -134720.43   -604.34134    610297.43   -509.74606     -616.276   -687.00195   -77.609264    66.705843      81.7859 
   15300    1702.9004    7043.5288   -141511.04   -134467.51   -133868.23    1577.0713    608818.17    950.95307    1823.1731    1957.0878   -37.364647   -328.82442    118.09654 
   15400     1701.031    7035.7967   -141477.78   -134441.98   -133965.24    1254.1035    609069.37    1339.6201    1450.9498    971.74044    255.48493    629.79308   -190.11016 
   15500    1696.3432    7016.4071    -141430.8    -134414.4   -134661.62    -648.9656    610355.59   -578.93081    17.168588   -1385.1346    -29.38386   -436.06116    237.15894 
   15600    1694.2418     7007.715   -141391.33   -134383.62   -134445.61    -162.6955    610473.69   -107.30948    -83.92771   -296.84931   -492.77692    117.75461   -327.67916 
   15700    1705.9528     7056.154    -141414.8   -134358.64   -134346.85     30.97127    610031.63   -15.942492    22.232789    86.623512   -780.11195   -70.196247   -233.55961 
   15800    1706.4277    7058.1185   -141408.19   -134350.07   -134465.21   -302.15793    610534.88   -489.84888   -189.54679   -227.07813   -599.05166    397.47471    56.561772 
   15900    1691.8793    6997.9433    -141348.8   -134350.85   -134246.38    274.20717    610452.11    321.77257    652.43405   -151.58512   -267.67586   -232.84136     65.72845 
   16000    1694.4847    7008.7199   -141360.53   -134351.81   -134441.37   -234.90784    610798.38   -587.49883    95.166182   -212.39086   -599.35442    300.61865   -463.66315 
   16100    1701.3772    7037.2284   -141396.82   -134359.59    -134858.8   -1308.3535    611321.99   -1209.1343   -1101.1568   -1614.7695   -266.38306   -119.78568    -212.4587 
   16200    1696.5974    7017.4582   -141394.85   -134377.39   -134654.16   -726.09028    610709.15   -358.13328   -1187.4267   -632.71091     398.5347    75.302833    177.01245 
   16300    1704.5547    7050.3715   -141447.12   -134396.75   -133996.63    1051.7299    609542.99    1208.7152    920.53137    1025.9432    474.19506   -227.10348   -217.16671 
   16400    1708.8802    7068.2625   -141503.75   -134435.49   -133940.39    1302.5134    608997.71    1587.9797    1228.2671    1091.2934    464.38913   -87.470919   -83.059991 
   16500    1692.4924    7000.4793   -141496.34   -134495.86   -134771.74   -724.42856    610160.72   -449.89111   -1334.2191   -389.17547    138.03364    292.10593   -410.10028 
   16600    1700.4218     7033.277   -141546.39   -134513.11   -134912.14   -1047.1736    610509.24   -1172.0025   -1669.1538   -300.36443    272.06609    76.034379    1.0876615 
   16700     1686.994    6977.7369   -141492.14   -134514.41   -134470.08    116.44176    609877.56   -97.225446   -785.76909    1232.3198    173.73672    129.68507   -443.07582 
   16800     1686.401     6975.284   -141469.29   -134494.01   -133899.07    1565.4206    608907.54    800.95471    1613.2826    2282.0245    32.111909   -180.12383   -980.65634 
   16900    1698.6118    7025.7903   -141486.36   -134460.57    -134416.9    114.67923     610044.4    566.07769   -14.623332   -207.41668    20.188408   -428.04186   -998.57719 
   17000    1696.7073    7017.9128   -141446.15   -134428.24   -135121.17   -1816.5078    611170.91   -2266.3484   -1668.2299    -1514.945    -238.4478    312.55071   -93.936126 
   17100    1699.5411    7029.6338   -141423.46   -134393.83   -134380.37    35.340005    610171.52   -960.30569    602.57553    463.75018     332.8102    369.70419    522.70368 
   17200    1707.6703    7063.2581   -141434.51   -134371.25   -133875.77    1302.8304    609327.31    481.34054    1867.4171    1559.7334    7.4420144   -323.89128    27.131971 
   17300    1701.7676    7038.8432   -141408.81   -134369.97   -134454.39   -221.52867    610613.14   -96.401622   -599.49798    31.313598    517.88456   -290.80362    120.45433 
   17400    1694.8779    7010.3461   -141388.38   -134378.04   -135141.84   -2000.8082    611627.76   -2045.5031   -1942.5816   -2014.3399    220.31606    221.63199   -102.49877 
   17500    1699.0679    7027.6767   -141411.89   -134384.21      -134472   -230.41928    610406.16    268.96834   -670.53341   -289.69276     -187.911    255.41981    34.902232 
   17600    1700.9616    7035.5096   -141421.21    -134385.7   -133995.74     1025.097    609480.22    959.48957    1476.0471    639.75438    489.48042   -54.215742    291.38271 
   17700    1692.6755    7001.2366   -141396.15   -134394.91   -134350.77    115.89645    610192.33    508.54312   -95.370393   -65.483379    413.01239   -773.79905    -39.14341 
   17800    1704.0596    7048.3233   -141455.72    -134407.4   -134693.95   -752.14184    610394.13    -1089.551   -567.47138   -599.40312   -253.91372   -511.57696   -286.42977 
   17900    1702.1184    7040.2941   -141469.89    -134429.6   -134592.88   -428.74142    610172.02    -1072.935   -117.90395   -95.385316    119.31955   -557.14147     -263.682 
   18000    1688.5415    6984.1377   -141440.14      -134456   -134261.65    510.86489    609542.31    1015.7363    165.51156     351.3468   -250.16537    69.549535    471.65251 
   18100     1691.892    6997.9957   -141475.15   -134477.15   -134269.98    544.65511    609431.45    1196.4844     99.11853    338.36237    456.61809     214.6478    373.81394 
   18200    1690.7024    6993.0756   -141480.68    -134487.6   -134826.17    -888.4261    610579.27    13.984509   -1277.0178    -1402.245    262.17703    107.49014    354.09642 
   18300    1703.9561    7047.8952    -141528.4    -134480.5   -134917.67   -1147.5253    610365.88    275.64514   -2012.2457   -1705.9753    157.90182     244.7719   -384.76995 
   18400    1697.6361    7021.7548   -141491.48   -134469.73   -134173.24    779.75417    609186.96    1443.6751    115.13121    780.45615    299.00808    176.65894   -609.96113 
   18500    1698.0263    7023.3685    -141467.1   -134443.73    -134125.6     836.3453    609448.44     1183.453    513.43689    812.14601    391.36629    253.29044    11.859883 
   18600    1708.2376    7065.6047   -141465.95   -134400.35   -134841.25   -1156.8404    610635.79   -900.63901   -1088.0406   -1481.8417    201.23677     250.0082   -276.92763 
   18700    1710.7253     7075.894   -141446.82   -134370.93    -134645.5   -720.47376    610592.07   -401.60199   -1438.5756   -321.24372   -180.66537   -548.73994    281.82769 
   18800    1696.5945    7017.4463   -141382.61   -134365.17   -133752.93     1609.302    609530.64    1955.9526    1095.6961    1776.2571    -47.42428    -481.3982     500.3773 
   18900    1705.0519    7052.4279   -141412.91   -134360.48   -134126.37    615.14074    609756.01    905.84322    263.54305    676.03597   -854.48375    110.16418   -54.567347 
   19000     1704.487    7050.0914   -141409.23   -134359.13   -134675.67   -830.25441    610828.22   -717.14651   -933.26318   -840.35355   -135.53498   -308.32975    207.81729 
   19100    1690.5634    6992.5007   -141367.86   -134375.36   -134493.97   -311.14185    610736.04   -476.38888    601.01995   -1058.0566    29.132925   -196.02627    15.385647 
   19200    1704.3982     7049.724    -141473.7   -134423.98   -134692.04    -703.2918    610674.39   -691.35983   -1119.8105   -298.70509   -281.74626   -538.97587   -436.69201 
   19300    1704.1127    7048.5432    -141524.8   -134476.26   -134664.29   -493.76743    610139.87   -377.34669   -810.45003   -293.50557   -30.691482    -219.6183   -231.08087 
   19400    1703.2671    7045.0453   -141541.08   -134496.03   -134070.01    1120.7734    609002.76     1656.061    979.74972    726.50933    -344.2186   -323.09373    76.702931 
   19500    1693.4749     7004.543   -141510.31   -134505.77   -133916.72    1549.9583    608897.06    2043.6314    1237.7103    1368.5333   -236.53307   -658.18768   -191.57394 
   19600    1684.0106    6965.3968   -141472.02   -134506.62   -134441.22    171.83925    609772.59   -133.20844     75.66521    573.06097    -465.4083    536.66788   -244.30566 
   19700    1694.9259    7010.5447   -141497.38   -134486.84   -134790.92   -798.19448    610365.25   -643.73166   -876.06884   -874.78292     307.4735    114.13342    -210.0776 
   19800    1699.5237     7029.562   -141485.38   -134455.82   -134745.66   -760.74936     610419.5    -259.9122   -1562.6335   -459.70243     735.3946    610.66484   -696.90506 
   19900    1697.7264     7022.128   -141452.48   -134430.35   -134092.61    887.67413    609583.31    1772.0761    672.89109    218.05522   -571.71051    146.65403    223.29002 
   20000    1699.0001    7027.3962   -141435.24   -134407.84   -133759.38    1705.8699    609040.34    1268.0676    2125.1011    1724.4409   -491.31758    3.1636989    410.04545 
   20100    1707.0527    7060.7035   -141450.35   -134389.65   -134877.92   -1279.9599    611181.88   -2041.5514   -836.74241   -961.58586    47.793647    221.90023   -3.3605157 
   20200    1700.9835    7035.6003   -141423.12   -134387.52   -134725.27   -885.59561    611039.53   -1756.4435   -622.77658   -277.56678    1033.4452    175.04698   -63.809908 
   20300    1711.4567    7078.9192   -141473.48   -134394.56   -134307.91    227.53071    610175.04    23.170996    537.18942    122.23172    410.74602    375.14898   -143.40799 
   20400    1700.2295    7032.4815   -141440.73   -134408.25   -133998.75    1075.8241    609850.55    1628.6362    1096.7537    502.08238    60.282329   -3.2841653    149.91947 
   20500    1706.4806    7058.3371   -141470.33   -134411.99   -134162.38     655.8662    609766.26    1063.7882    715.05116    188.75921   -1.8183714    271.48235   -69.873492 
   20600    1711.2749    7078.1673    -141492.2   -134414.03   -134599.36   -486.67675    610105.18   -253.59065   -913.97333   -292.46626    48.939843    348.24081   -423.20988 
   20700    1693.3802    7004.1514   -141424.81   -134420.66   -134924.58   -1321.0909    611139.52   -1808.5269   -1135.8762   -1018.8695    353.79925   -139.18069    -501.8005 
   20800    1699.4934    7029.4367   -141453.93   -134424.49   -134630.18   -539.86194    610442.86   -791.88372   -799.35998    -28.34214   -416.60062    789.54119   -757.62261 
   20900    1716.7433    7100.7858   -141535.68   -134434.89   -133968.01     1228.056    609113.23    577.88525    1199.7737     1906.509   -298.17402    413.67869   -365.56273 
   21000    1693.8156    7005.9521   -141471.16   -134465.21   -134040.34      1116.54    609673.83    1393.7116    839.12466    1116.7836   -41.700494    1026.6074   -842.48834 
   21100    1689.6053    6988.5376   -141474.24    -134485.7   -134948.03   -1212.7281    610796.89   -1031.9547   -1372.3045   -1233.9252    80.072912   -102.80824     319.8579 
   21200    1689.3862    6987.6314   -141475.17   -134487.54      -135033   -1431.0757    610674.16   -1302.8647   -1428.8492   -1561.5132   -166.40849   -213.45748    143.83475 
   21300    1704.5995    7050.5566   -141508.57   -134458.02   -134258.06    525.70539    609412.07    667.60558     250.1491    659.36149    350.30012    215.21254    -184.2493 
   21400     1710.682    7075.7152   -141462.12   -134386.41   -133937.88     1179.312    609363.37    1007.1012    1364.4994    1166.3353   -453.83731    514.77768   -162.98194 
   21500    1711.4721    7078.9829   -141432.93   -134353.94   -134218.45    355.95428    609864.85    116.90016     147.5371    803.42559   -161.05011    323.46292   -1.8097754 
   21600    1709.2168    7069.6545    -141418.6   -134348.95   -134283.23    172.62439     609941.1    261.71751    308.99513    -52.83947    37.004256    182.16274   -692.60972 
   21700    1708.7308    7067.6444   -141432.98   -134365.33   -134505.64   -368.27532    610399.16   -1360.5806   -239.13875    494.89335    61.947889    88.084493    98.365498 
   21800    1701.7704    7038.8547   -141439.03   -134400.17   -134528.74   -337.52499    610273.93   -771.47432     53.79809   -294.89874    115.90513   -412.07972   -311.37963 
   21900    1700.5077    7033.6321   -141459.36   -134425.73   -134082.38    902.56704    609494.81    1263.8113    1125.8148    318.07503   -27.082153   -245.89858   -255.42332 
   22000    1697.2351    7020.0959   -141460.16   -134440.06   -133997.92    1162.7984    609211.95    641.90691    1360.0129    1486.4753    155.00027   -57.976412    242.23702 
   22100     1709.229    7069.7049   -141514.93   -134445.23   -134636.01   -501.12934    609963.38   -983.79335    -222.7516   -296.84306    237.21192    10.363459    369.89146 
   22200    1700.7697    7034.7156   -141484.87   -134450.15   -134596.35   -383.87661    610175.18   -503.13836   -449.93299   -198.55848   -445.60845    84.791199   -76.461726 
   22300    1694.5303    7008.9086   -141466.62   -134457.71   -134214.35    639.53907    609666.55     669.2093     255.1802    994.22771    426.02704    327.64824     78.16033 
   22400    1704.5267    7050.2554   -141505.17   -134454.91   -134238.72    568.05831    609766.96    246.82593    425.02299     1032.326    633.38232    447.10468    254.99984 
   22500    1702.3293    7041.1665   -141476.88   -134435.71   -133872.91    1480.8221     608915.9    1527.4545    1290.1693    1624.8426   -300.70827   -42.029061    104.54396 
   22600    1714.8475    7092.9444   -141506.86   -134413.92   -134849.46    -1142.731    610653.03   -1061.5737   -666.70565   -1699.9136   -127.39409      231.441    88.312447 
   22700    1707.6588    7063.2106   -141466.12   -134402.91   -134698.48   -775.57186    610589.72   -584.74357   -500.01297    -1241.959     186.9939   -154.16582   -488.46486 
   22800    1710.7809    7076.1241   -141479.63    -134403.5   -133853.81    1445.8259    609132.56    1209.5205    1363.1166    1764.8405    22.101114    217.30227    457.38096 
   22900    1704.5615    7050.3994   -141465.78   -134415.38   -133963.15    1188.9984    609378.36    1507.5712    600.14904    1459.2748    402.80726     143.2075    249.97235 
   23000     1701.233     7036.632   -141475.33   -134438.69   -134601.21   -426.70094    610211.98    528.71207   -760.77103   -1048.0438    582.05468    -257.4243    191.34348 
   23100     1701.027    7035.7799   -141511.26   -134475.48   -134777.63   -793.12276    610363.21   -693.52758   -977.47551   -708.36519    650.25616   -146.16441    83.946755 
   23200    1690.4892    6992.1937   -141497.63   -134505.43   -134128.69    990.52562    609387.63    1393.0171    1154.8399    423.71989    38.674838    90.413281   -468.50296 
   23300    1701.6698    7038.4388   -141549.11   -134510.67   -133971.43    1419.1076    608808.52    2219.3336    1078.2998    959.68936   -24.854088    286.41817   -230.49574 
   23400     1692.378    7000.0062   -141501.33   -134501.33    -134560.7   -155.97787    609879.46   -128.02947    140.77337    -480.6775   -409.89941    265.58669   -68.300069 
   23500    1694.8593    7010.2691   -141483.64   -134473.37   -135138.85   -1744.9462    611025.94   -1736.3586   -2079.8096   -1418.6703   -834.77905     559.5454    315.08165 
   23600    1695.0488    7011.0529    -141456.7   -134445.65   -134499.48   -141.38268    610070.84   -72.119198   -756.33284    404.30399   -163.59116    113.97288   -293.09881 
   23700    1694.5451    7008.9694   -141439.28   -134430.31   -133940.55    1287.7687    609342.67    1143.8058    1404.6623    1314.8379   -293.85775    -230.1691   -28.028443 
   23800    1690.7027    6993.0767   -141409.04   -134415.96   -134343.16    191.13712    610203.67    682.25189   -487.66853    378.82801     -64.8582   -155.26968   -23.441776 
   23900     1712.056    7081.3981   -141477.16   -134395.76    -135003.6   -1593.8581    611008.55   -1753.0271   -1543.7319   -1484.8152    22.674634   -33.978053   -37.797226 
   24000    1690.9084    6993.9273   -141386.35   -134392.42   -134243.06    392.03322    610404.67    44.757565    546.76216    584.57994    489.95123   -194.09308    171.89978 
   24100    1704.7213    7051.0602   -141441.83   -134390.77   -133582.29    2127.0667     608976.5     2305.248    1886.4982    2189.4539    -71.46239    48.293506     218.7157 
   24200    1704.2616    7049.1588   -141446.27   -134397.11   -134524.06    -333.1918    610466.02    475.01464   -765.52742   -709.06262    272.64997    336.22505    194.54229 
   24300    1695.0769    7011.1691   -141420.42   -134409.25   -134956.17    -1433.583    611238.96   -1218.5906   -1130.2876   -1951.8707    460.26631    120.85115    761.52333 
   24400    1697.1795    7019.8662   -141455.48   -134435.62      -134565   -339.54284    610519.84   -126.49598   -106.68989   -785.44265    270.96632    349.56938     354.3503 
   24500    1692.2608    6999.5215    -141467.5   -134467.98   -134289.51    468.95819     609735.6    272.55671    533.76749    600.55036   -245.07616     -263.062    43.210879 
   24600    1699.7587    7030.5341   -141523.56   -134493.03   -134265.78     597.2571    609612.87    999.52055    161.40801    630.84275    560.49768    -197.1343   -227.15667 
   24700    1695.1934    7011.6513   -141524.03   -134512.38   -134194.86    835.12178    609161.13    1467.0335   -210.07135    1248.4032    277.91939   -333.92957   -48.057944 
   24800    1692.8307    7001.8784   -141523.94   -134522.06   -134767.62    -645.0048    609954.64   -903.99018   -562.03235   -468.99187    93.446209   -364.67715    419.18184 
   24900    1692.9836    7002.5109   -141516.28   -134513.77   -134889.02   -985.19246    610254.06   -585.86165   -1246.4488   -1123.2669   -341.71138   -366.62887    63.835566 
   25000    1681.4677     6954.879   -141427.34   -134472.46   -134374.88      256.393    609765.58    403.18125    490.41921   -124.42147   -389.93905   -171.38895   -60.881855 
   25100    1708.4963    7066.6743   -141481.65   -134414.98   -134184.16    606.72411    609523.82    873.57964    293.83018     652.7625    174.90888   -250.72578   -653.45625 
   25200    1700.1721    7032.2439   -141430.94   -134398.69   -134924.14   -1377.7906    611024.93   -1033.6138   -1979.3173   -1120.4408    -296.7097   -254.09066    130.54169 
   25300    1694.5668    7009.0592   -141403.28   -134394.22   -134909.92    -1352.006    611122.66   -1930.8557   -1220.6657   -904.49672   0.14743491    248.08196    154.51363 
   25400    1702.2786    7040.9571   -141434.67   -134393.71   -134457.16   -166.58943    610171.34   -55.682623   -422.97187   -21.113813   -68.798552   -1.4685346    129.54065 
   25500    1700.5293    7033.7212   -141434.61   -134400.89   -134230.66    447.18534    609909.51     547.5827   -10.730279    804.70361   -287.99936   -65.620057   -417.98031 
   25600    1703.6936    7046.8097   -141464.89   -134418.08   -133985.48    1137.0536    609566.18    1459.5578    382.04621    1569.5568    130.78773     121.4097   -782.33689 
   25700    1697.9331    7022.9832   -141477.29   -134454.31   -134778.52   -850.85799    610489.53   -290.32637   -836.34008   -1425.9075    412.43137    429.36513   -259.96078 
   25800    1683.6571    6963.9347   -141447.48   -134483.55   -135059.66   -1510.8489    610937.01   -1401.3599   -1707.2159   -1423.9709   -203.58975    12.669199    139.34506 
   25900    1680.3733    6950.3524   -141441.47   -134491.11   -134599.08   -283.53319    610089.29   -741.54705    84.478751   -193.53126    79.108575    -10.07226    142.93507 
   26000    1688.1864    6982.6689    -141461.4   -134478.73   -134313.49    434.35535    609521.05    857.03915    347.95766    98.069256    231.85569   -87.410163     28.88051 
   26100    1699.1807    7028.1432   -141476.49   -134448.34   -134305.98    374.13486    609634.63    421.77526    389.26773    311.36158   -256.45933    143.32783    590.57433 
   26200    1708.3358    7066.0105   -141490.79   -134424.78   -134161.17     692.7686    609649.37    1060.1387    890.71832    127.44884    33.331609    206.00764    162.27371 
   26300    1701.8424    7039.1528   -141461.77   -134422.62   -134579.54   -411.79812    610522.89    325.77493   -1398.3876   -162.78172    476.13406     31.60219    258.03736 
   26400    1706.0813    7056.6854    -141482.7   -134426.01   -134749.32   -848.41094    610554.83   -629.56343    -1339.368   -576.30138    414.71622    197.01972    520.63576 
   26500    1690.9509    6994.1033   -141428.74   -134434.64   -134406.66    73.444708    610235.35   -1.2538896    308.28884   -86.700823    351.39701    -375.1149    611.76196 
   26600     1693.364    7004.0843   -141438.91   -134434.83   -133975.53    1207.2544    609537.58    1629.9886    548.51332    1443.2613   -21.910415   -470.40299    86.553242 
   26700    1692.6371    7001.0778   -141431.35   -134430.27    -134786.2   -933.32683    611005.87   -1324.2758   -489.78533   -985.91934   -364.47183   -458.46231    492.10824 
   26800    1702.5688    7042.1572   -141452.09   -134409.94   -134768.42   -940.13868    610933.34   -569.13824   -1615.8089   -635.46896   -188.59052   -517.32074    364.44696 
   26900    1696.6085    7017.5042   -141402.81    -134385.3   -134558.81   -455.28581    610591.54    -1004.175   -25.935708   -335.74677    30.677328   -66.860742    33.677896 
   27000    1701.8119    7039.0264   -141382.61   -134343.59   -133997.85    907.99475    610053.57    145.95068     1395.402    1182.6316      663.546   -406.17685    38.281831 
   27100    1709.1034    7069.1857   -141380.27   -134311.08   -134048.41    689.78885    610123.15    380.08156    1032.7487    656.53631   -313.56065   -61.857673   -134.33592 
   27200    1708.1272     7065.148   -141364.88   -134299.73   -134369.58   -183.19302    610821.36    82.562165    3.5515543   -635.69278    182.29885    50.505341   -296.50933 
   27300    1708.5803    7067.0219   -141373.01   -134305.99   -134800.09   -1294.7813    611402.97   -1624.0983   -846.55892   -1413.6868   -353.45643   -304.81699   -50.225619 
   27400    1710.3824    7074.4758   -141405.61   -134331.13    -134378.7    -124.8372    610472.16   -35.248651   -115.86201   -223.40094   -187.95339   -590.33045    803.66101 
   27500    1705.0699    7052.5024   -141410.58   -134358.08   -133874.99    1269.8494    609514.33    780.72897    993.29146    2035.5277    10.254205    -954.4507    17.912348 
   27600    1706.7988    7059.6533   -141437.32   -134377.67   -134040.05    887.00682    609827.57     1579.901    1239.2114   -158.09195    569.79939   -719.60511    52.868029 
   27700    1697.9954    7023.2406   -141416.11   -134392.87   -134802.54   -1074.1019    611080.66    302.68959   -1707.9975   -1816.9977   -69.240837   -10.733265     233.5797 
   27800    1697.4278    7020.8931   -141424.27   -134403.37   -135073.93   -1756.8341    611521.65   -1346.3224   -2282.0584   -1642.1215     275.1551   -472.37909    200.69264 
   27900    1693.2901    7003.7786   -141423.91   -134420.13   -134337.32    217.44549    610196.19   -42.140355   -76.048789    770.52561    803.37881     26.52745    348.15188 
   28000    1697.7457     7022.208   -141456.95   -134434.74    -134221.8    559.55246    609704.62     479.9188     603.6807    595.05788    213.72842     550.7273     468.9895 
   28100    1700.8445    7035.0254   -141478.55   -134443.53   -134379.49    168.27842    609683.63    200.10902    82.466579    222.25965   -55.081187    166.33222    401.38612 
   28200    1703.2454    7044.9557   -141491.43   -134446.47   -134265.76    474.98655    609557.65    308.81723    1106.8885    9.2539559    537.27279   -141.76862   -289.38959 
   28300    1702.5519    7042.0875    -141493.4   -134451.32   -134066.79    1011.1479    609282.55    572.08334     1302.738    1158.6225   -539.08556    276.40116    377.10476 
   28400    1682.5977    6959.5527   -141430.42   -134470.87   -135020.03   -1439.9784    611012.31    -1135.987   -1828.3066   -1355.6415   -92.766815    196.33731    145.36605 
   28500    1696.4303    7016.7673   -141492.54   -134475.78    -134843.6    -965.5704    610333.45   -949.08762   -1039.7865   -907.83713   -433.28293   -136.17761   -128.63555 
   28600    1705.6578    7054.9338   -141524.76   -134469.82   -134193.91    725.52957    609295.38    1461.8701    645.63236     69.08626    40.846639    35.004277    35.392158 
   28700    1696.1587    7015.6439   -141470.22   -134454.58   -133840.06    1617.4939    608700.48    2389.0353    1267.2231    1196.2233   -242.62468  -0.98002342    535.17493 
   28800    1712.9806    7085.2223   -141510.16   -134424.94    -134513.2   -231.75843    610184.99      418.906    241.01305   -1355.1943    250.47468    341.50741    124.62187 
   28900    1714.7912    7092.7113   -141500.26   -134407.55    -134899.1   -1289.2959    610834.48   -1040.5023   -1723.8507   -1103.5346    335.36115   -270.16996    171.75663 
   29000    1703.9766    7047.9803   -141457.98   -134409.99   -134077.33    874.18241    609696.92    1091.5792    894.59895    636.36907    33.046422   -178.17313    347.11289 
   29100    1698.3906    7024.8753   -141452.63   -134427.76   -133941.82    1277.3324    609516.29    1072.4172    1442.4947    1317.0855      322.335     -725.535    186.17278 
   29200    1705.8653    7055.7922   -141515.61   -134459.82   -134855.77   -1038.7282    610735.45   -1471.9816   -912.09266   -732.11039    183.32531   0.99378276    182.72051 
   29300    1680.3996    6950.4609   -141452.87   -134502.41   -134870.96   -966.81862    610742.33   -682.62504   -1001.2632   -1216.5676   -265.51088    -390.1956    884.08505 
   29400    1694.9692    7010.7238   -141528.74   -134518.01   -134318.55    524.36803    609461.94    667.06182    749.24232    156.79993    18.341746   -179.09833    919.96943 
   29500    1700.1428    7032.1228   -141551.22    -134519.1   -133891.07    1653.2358    608631.55    2450.6966     742.7041    1766.3067   -337.46855     17.94812    393.67792 
   29600    1701.9951    7039.7842   -141553.28   -134513.49    -134423.7     236.1204    609281.99    -44.20871     156.6496    595.92031    22.326453    219.01863    59.939097 
   29700    1703.7671    7047.1138    -141546.8   -134499.69   -135131.71   -1658.5256    610546.92   -1270.8246   -2237.1393   -1467.6127   -346.08068    227.03669    127.55497 
   29800    1682.9382    6960.9613   -141437.66    -134476.7   -134506.74   -78.903469     609926.9   -326.79891    -170.6722     260.7607   -480.56799    69.092391   -146.08084 
   29900    1700.2216    7032.4486   -141448.63   -134416.18   -134133.36    743.25695    609654.94    1203.5054    699.16384    327.10158   -275.56375   -64.700237   -117.98198 
   30000    1704.4813    7050.0678   -141433.99   -134383.92    -134683.4   -785.78904     610632.3   -280.85084   -1231.6048   -844.91154   -336.90255    396.09022     149.5719 
   30100    1703.5824    7046.3496   -141425.77   -134379.42   -134864.76   -1272.7752    610956.86   -311.07206   -1678.4729   -1828.7808    93.506478    612.22166   -47.999593 
   30200    1698.2726    7024.3874   -141412.04   -134387.65   -134284.59    270.75538    609868.54    874.49748   -230.63922    168.40789   -305.13261   -415.58104    220.29539 
   30300    1704.1327    7048.6256    -141446.6   -134397.98   -133915.22    1269.0925    609455.66    1277.7807    1706.0756     823.4212    281.03825    596.18552   -263.26406 
   30400    1696.4483    7016.8416   -141423.23   -134406.39   -133920.18     1278.593    609255.98    917.40976    791.08918      2127.28     459.5814    232.33087   -115.96807 
   30500     1700.221    7032.4461   -141444.75    -134412.3   -134860.86   -1176.7364    610739.74   -2031.7405   -678.16505   -820.30381    441.98418   -152.54794   -414.31084 
   30600    1698.6666    7026.0168   -141442.62    -134416.6   -134827.05   -1076.8077    610707.17   -1777.1172   -1053.2133   -400.09267    65.518006    71.663534    11.874514 
   30700    1702.4079    7041.4918   -141461.96   -134420.47    -134155.5    696.25534    609727.06    327.80755    732.01838    1028.9401   -433.52518    118.80823    -124.0414 
   30800     1699.163    7028.0703   -141465.55   -134437.48   -133990.73    1174.8072    609268.92    822.50532    1479.0311    1222.8853   -503.83517    184.54835   -401.03301 
   30900     1696.975    7019.0201   -141486.66   -134467.64   -134719.95   -662.37893    610290.05   -897.92443   -180.18495    -909.0274    34.016667   -176.89788   -296.47545 
   31000    1692.5655    7000.7815   -141499.65   -134498.87   -135092.35   -1557.3004    610591.76   -2046.9789   -863.83289   -1761.0895     338.9715   -359.58156     131.8624 
   31100    1692.4612    7000.3501   -141510.86   -134510.51   -134563.78    -139.9331    609909.28   -477.89381    525.57911   -467.48459    5.7766934    -280.6605   -308.27128 
   31200    1698.6413    7025.9121   -141528.13   -134502.22   -133960.06    1426.7747    608814.38    1391.3248    1246.3885    1642.6107   -273.07781   -157.31294   -255.01615 
   31300     1707.505    7062.5742   -141548.45   -134485.87   -134196.53    760.87966    609266.87    619.26912    497.77522    1165.5946    304.55357   -167.59287    331.57076 
   31400    1700.2164    7032.4272   -141492.77   -134460.34   -134633.68   -455.24899    610033.85    -601.0269   -552.33606   -212.38401    -181.8638   -379.61048   -347.81887 
   31500    1710.5276    7075.0765   -141484.25   -134409.17   -134622.29    -559.3981    610410.79   -848.82257   -171.05022    -658.3215    103.30409    70.607654   -91.907919 
   31600    1706.6194    7058.9112   -141430.21    -134371.3   -134034.39     885.3119    609725.08    858.79442    960.41491    836.72638   -127.56865    481.71222    65.981955 
   31700    1696.7515    7018.0958   -141378.92   -134360.82   -134025.23    881.28121    610108.42    675.43189    1316.2528    652.15888    621.34806    340.39995   -264.71996 
   31800    1712.8959    7084.8722   -141443.73   -134358.86   -134582.38    -586.2844    610833.34   -505.66958   -261.36747   -991.81616    51.183955    98.696464   -508.65778 
   31900     1705.006    7052.2379   -141428.91   -134376.67   -134803.95   -1119.9573    611248.03   -1234.4338   -1158.0192   -967.41886   -359.94087   -33.113149   -251.22367 
   32000    1695.8881    7014.5246    -141416.8   -134402.28   -134161.28    633.01965    609971.04   -113.18862    1119.9085    892.33909    415.90112    438.76288   -352.42699 
   32100    1705.9387     7056.096   -141477.07   -134420.97    -134018.9    1056.9331    609493.04    532.49618    1173.8371    1464.4659    -162.3718    461.15133   -33.411899 
   32200    1699.9921    7031.4994   -141472.93   -134441.43   -134926.33   -1271.8539    610832.03   -1431.8369   -1004.9038    -1378.821   -250.00588    139.07173    326.89022 
   32300    1695.7085    7013.7819   -141470.25   -134456.47   -134682.35   -592.76548    610540.12   -1291.1405    42.167316   -529.32328    301.75105   -25.729345    101.68831 
   32400    1693.2762    7003.7211   -141458.75   -134455.02   -133949.33    1330.3292    609030.04    1323.0646    973.88202     1694.041    131.87324   -54.587715    558.91642 
   32500    1713.1121    7085.7662   -141529.86   -134444.09   -134257.94    489.27371    609549.86    379.16532    374.83363    713.82216    519.56338    366.44844    621.42651 
   32600    1704.3556    7049.5476   -141496.82   -134447.27   -134884.51    -1147.281    610604.06   -1567.2041   -1000.0507   -874.58832   -319.00599    417.37088   -63.244477 
   32700    1690.0545    6990.3957   -141449.64   -134459.25   -134621.95   -427.06404    610387.65   -1085.7907   -381.04155    185.64013   -28.689071   -12.066568    272.92819 
   32800    1706.5629    7058.6775   -141513.89   -134455.21   -133790.85     1748.147    608883.82    955.10939    2098.8418    2190.4899   -294.12803    293.58045   -190.46066 
   32900    1704.6077    7050.5903   -141484.42   -134433.83   -133993.82    1157.1484    609229.09    927.81806    1368.7007    1174.9263   0.32319876   -77.512814   -350.45786 
   33000     1716.539    7099.9406   -141490.97   -134391.03   -134696.61   -802.21933    610284.37   -1288.0862   -469.07318   -649.49856    450.05248   -36.098193   -5.0209822 
   33100    1712.5812    7083.5704   -141445.83   -134362.26   -134510.54   -389.28149    610275.57   -411.15173   -36.649682   -720.04306    266.06916   -161.87817   -24.441221 
   33200     1721.885    7122.0528   -141481.84   -134359.79   -133965.95    1035.7963    609202.06    235.66133    1329.6534    1542.0742   -105.43439    23.834747    92.823876 
   33300    1697.7496    7022.2242   -141403.14   -134380.91   -134005.34    987.15347    609572.11    797.70354      1660.72    503.03683   -198.28168   -178.05383   -528.60056 
   33400    1700.1845    7032.2953   -141425.55   -134393.25   -134451.01   -151.62606    610295.55   -121.07414   -326.24555   -7.5584881   -239.08509   -923.99558   -64.331138 
   33500    1694.8131    7010.0783   -141411.53   -134401.45    -135249.6   -2222.0789    611535.19   -2225.8892    -3071.418   -1368.9296     12.75805   -107.45783   -468.55421 
   33600    1698.6326    7025.8763   -141437.48    -134411.6   -134862.55    -1182.447    611014.84   -821.91406   -1183.4926   -1541.9344    114.21042   -438.62827    259.56605 
   33700    1704.3194     7049.398   -141475.72   -134426.33   -134138.49    756.45852    609639.12     1110.461    494.07289    664.84169    83.357233   -247.11373      393.987 
   33800    1694.2281    7007.6583    -141448.5   -134440.84   -134145.33    776.73486    609557.91    915.23276    1165.3507    249.62111    -328.4891     229.6021    236.73494 
   33900    1695.4073    7012.5358   -141456.37   -134443.83   -134394.47    129.68857    609762.11    486.95197    61.502751   -159.38902    29.056401    412.41232    610.82221 
   34000    1697.9108     7022.891    -141465.4   -134442.51    -134894.1   -1184.5135    610832.98   -612.49759   -1262.2796   -1678.7634     -59.7315    215.87118    419.35722 
   34100    1696.9947    7019.1015   -141456.82   -134437.72   -134517.64   -209.91932    609996.41    757.18029   -698.63037   -688.30787   -133.34419    310.36454    46.204061 
   34200    1710.6542    7075.5999   -141507.55   -134431.95   -134023.46    1074.3896    609153.57    818.28763    1355.0003     1049.881   -56.340071   -520.72149    119.69014 
   34300    1704.8261    7051.4939   -141490.16   -134438.67    -134015.9    1111.8329     609223.5    1097.0533    1221.6175     1016.828   -221.90947   -146.97449    125.21785 
   34400    1696.1747    7015.7101    -141456.5   -134440.79   -134467.89   -71.168514    610053.71    869.49426   -575.17113   -507.82867   -363.19554   -228.70133    688.42963 
   34500    1704.5389    7050.3061   -141478.58   -134428.27   -135055.89   -1645.4342    611116.56   -1162.0707   -2037.6452   -1736.5868   -264.47544    38.963394    -7.320905 
   34600    1696.8665    7018.5713   -141439.41   -134420.84   -134364.02    149.16994    610261.98    526.85833   -227.33819    147.98968   -43.933325    353.59329   -209.82619 
   34700    1698.1466    7023.8663   -141445.56    -134421.7   -134238.84    480.20881    610084.87    629.58569    423.68013    387.36063    150.35909   -289.05492    -372.7481 
   34800    1711.0924    7077.4123    -141504.6   -134427.19   -134853.04   -1116.8969    610879.37   -1154.9438   -1301.4287   -894.31814   -18.442569   -378.03499   -883.18071 
   34900    1700.2724    7032.6588   -141483.25   -134450.59   -134866.54   -1091.8332    610377.29   -410.90205    -1419.674   -1444.9234     346.0421    53.700107   -243.34496 
   35000    1682.1785    6957.8188      -141443   -134485.19   -134315.45    445.76695    610051.25   -18.047542    547.36458     807.9838   -6.4221804    -8.942985   -319.88772 
   35100    1692.2863    6999.6266   -141506.96   -134507.33   -134433.72    193.45538    609664.42    569.93457   -74.323198     84.75478    111.86317      285.274    258.94955 
   35200    1695.8744     7014.468   -141527.73   -134513.26   -134524.19   -28.710674     609839.2    257.34564    121.73843   -465.21608    22.048629    58.028763   -8.1237946 
   35300    1689.5127    6988.1547   -141499.42   -134511.27   -134945.79   -1139.7988    610790.05   -525.29827   -741.77172   -2152.3265   -122.43189    115.53979   -198.13456 
   35400    1695.7443    7013.9299   -141505.02   -134491.09   -134736.19   -643.70386    610050.73   -327.54743   -729.42647   -874.13769    9.0484892   -230.73228    199.30901 
   35500    1691.3529    6995.7659   -141438.49   -134442.73   -134245.64    517.61919     610042.5   -120.60265      1127.15    546.31022   -392.91235   -107.43061    100.87073 
   35600    1694.6973    7009.5993   -141400.17   -134390.57   -133857.55    1401.0238     609548.9    1643.2613    1890.5958    669.21425   -156.67013   -29.419929    19.810543 
   35700    1709.8635    7072.3296   -141436.89   -134364.56   -134431.07   -174.55937    610412.55   -418.95597     36.79238   -141.51452   -416.57017    420.87229    321.36975 
   35800    1698.7879    7026.5186   -141379.39   -134352.87    -135093.4   -1939.5203    611733.34   -1651.3019   -2530.8674   -1636.3915   -370.85561   -279.37723    203.87092 
   35900    1703.5602    7046.2579   -141388.09   -134341.83   -134358.84   -44.629716    610559.76   -241.02135   -150.97781    258.11001    -153.2715   -174.65437    341.87825 
   36000    1705.2653    7053.3104   -141389.08   -134335.77   -133877.54    1204.0155    609757.23    1302.0571     1071.319    1238.6704    274.32043   -310.65292    514.92471 
   36100    1711.6496    7079.7173   -141421.37   -134341.66   -134524.46   -479.48653    610814.85    -341.2303   -407.02252   -690.20677    196.13346    405.68139   -182.32163 
   36200    1712.4941    7083.2102   -141456.78   -134373.57   -134592.82   -575.22351    610697.34   -864.31833   -367.24347   -494.10874    484.65843    540.85595    232.20776 
   36300    1704.5276    7050.2592   -141473.99   -134423.73   -134120.81    796.25604    609511.44     905.3055    802.35613    681.10649     277.4977    258.17289    36.762253 
   36400    1698.5618    7025.5836   -141477.49   -134451.91   -133792.64    1734.6513    608922.37    1619.7441    1654.4715    1929.7383   -22.917095   -390.01123    187.81325 
   36500    1698.0148    7023.3211   -141485.24   -134461.92   -134275.26    490.49348    609692.21    611.34805    1093.6501   -233.51771    56.161288   -115.50218    213.77456 
   36600    1709.1299    7069.2952   -141526.82   -134457.52   -134930.82   -1241.4982    610797.97   -805.45469   -1485.5935   -1433.4465   -100.79125    324.70618   -477.81123 
   36700    1699.7483     7030.491    -141491.7   -134461.21   -134994.83    -1399.876    610730.24   -1653.0154   -1507.3036    -1039.309    90.863199   -127.53979   -903.79857 
   36800    1696.9886    7019.0763   -141485.19   -134466.11   -134082.69     1008.344    609218.42    2236.7224    803.70915   -15.399644    226.25617    243.04118   -297.86837 
   36900    1701.4013    7037.3282   -141512.97   -134475.64   -134423.37    137.30918    609938.67    580.33543   -258.97449    90.566602    282.02817   -113.40783   -257.24694 
   37000    1692.8794    7002.0801    -141491.6   -134489.52   -134384.49    275.89164    609901.39   -405.66267    720.31943    513.01815    274.72499    8.4237227   -509.16526 
   37100      1694.55    7008.9899   -141503.65   -134494.66   -134459.42    92.613266    609645.61    365.24154    86.977131   -174.37887   -370.75504   -234.87679    141.67332 
   37200    1694.1038    7007.1443   -141495.26   -134488.11   -135083.73   -1562.0092    610927.74   -2027.2149   -972.04122   -1686.7715    16.282361   -164.53721    524.94046 
   37300    1695.6775    7013.6536   -141478.64   -134464.99   -134814.85   -918.07756    610560.68   -1140.9799   -321.47945   -1291.7733    347.16853   -506.88984    505.53822 
   37400    1705.0633    7052.4748   -141481.91   -134429.43   -133945.04    1274.1386       609099    1054.8305     1752.182    1015.4032    107.49434    99.308444    559.85677 
   37500    1707.2234    7061.4096   -141460.72   -134399.31    -133891.2    1336.3211    609198.83    1665.0848    1500.1422    843.73638    254.28634   -575.51154    547.15186 
   37600    1704.1582    7048.7314   -141436.61   -134387.88   -134640.52   -663.19313    610344.68   -744.17791   -599.91703   -645.48444    242.34078   -200.67709    782.91314 
   37700    1700.8298    7034.9646   -141419.91   -134384.95   -134651.19   -698.61636    610585.44   -512.07752   -980.14783   -603.62373     127.6137   -241.49322    516.68456 
   37800    1702.2551    7040.8595   -141432.13   -134391.27   -134439.43   -126.45377    610196.47   -126.78232    481.80325   -734.38224    -320.4541    367.04086    -130.3221 
   37900    1698.6519    7025.9563   -141447.18   -134421.22   -134388.21    86.700155    609957.09   -638.74851    622.00626    276.84271    2.5696954    70.319234    225.33494 
   38000    1697.2795    7020.2798   -141493.97   -134473.69   -134117.28    937.02894    609415.17    928.98394    1039.7219    842.38098    74.199823   -83.547318    115.86329 
   38100    1704.4164    7049.7993   -141551.41   -134501.61   -134699.92   -520.78727    610092.88     -580.777   -876.22124   -105.36356   -354.10558    722.87322    113.19189 
   38200    1696.0802    7015.3192   -141518.31   -134502.99   -134837.64   -878.50736    610307.51   -751.96735   -1442.3377   -441.21701   -125.75085    355.76343    455.21033 
   38300    1695.1747     7011.574   -141508.68    -134497.1   -134233.32    693.34564    609552.68    701.31054     102.8256    1275.9008   -490.32929    275.95996   -411.91388 
   38400    1704.3442    7049.5007   -141541.15   -134491.65   -134423.48    179.19594    609501.02    672.38904   -251.76112    116.95989    172.78458   -50.076392    306.03546 
   38500    1704.5175    7050.2172   -141532.43   -134482.21   -134665.33   -481.05869     609878.1    46.877901   -354.73069   -1135.3233   -62.822556    91.321236   -104.67288 
   38600    1699.4983    7029.4569   -141499.05   -134469.59   -134382.01    230.22511    609495.53    252.10443    159.85766    278.71323    540.42349    351.32956    344.08146 
   38700    1689.5633    6988.3637   -141435.34   -134446.97   -133969.86    1254.1947    609489.45    1517.0655    877.99048    1367.5282   -302.37346   -32.067476    202.14318 
   38800    1699.9569    7031.3538   -141435.15    -134403.8   -134545.37   -371.51433    610551.33   -129.23807    64.439931   -1049.7448    500.29191     58.49703   -64.758392 
   38900    1707.7484    7063.5809   -141425.09   -134361.51   -135067.49   -1849.3666    611620.27    -1515.209   -1630.0616   -2402.8291    316.18147    -102.0432   -599.27779 
   39000    1706.5652    7058.6872   -141407.65   -134348.96   -134608.39   -680.58505    610730.29   -516.08664   -402.68473   -1122.9838   -61.473106   -428.15839    370.08397 
   39100    1704.4714    7050.0265   -141407.11   -134357.08   -134054.14    795.95552    609791.67    1597.8401    1178.7798   -388.75326   -385.94743    26.067597     205.3496 
   39200    1705.6065    7054.7217   -141428.35   -134373.63   -134081.53    767.52552    609738.92    1138.8486    646.75789    516.97008   -610.85137   -637.11189   -338.34278 
   39300    1714.0168    7089.5082   -141484.03   -134394.53   -134544.76   -394.34619    610384.91   -193.20237   -12.461755   -977.37445    169.78765   -522.65265   -190.23018 
   39400    1712.9022    7084.8982   -141508.02   -134423.12   -134809.15    -1013.326    610357.58   -795.51035   -931.54224   -1312.9255    309.29683    -133.2492   -638.93599 
   39500    1692.8591    7001.9961   -141449.26   -134447.27   -134001.42    1172.2018    609380.87    637.51714    1385.1766    1493.9115    646.00084    -840.2003   -114.60163 
   39600    1691.6248    6996.8906   -141450.43   -134453.54   -134060.33    1033.7018    609453.08    1241.8986    989.35582    869.85096    350.32637   -538.46792    126.72147 
   39700    1698.7938    7026.5432   -141472.26   -134445.72   -134597.01   -397.22733    610212.09    151.73963   -748.79011    -594.6315   -285.60638   -127.06219   -140.60666 
   39800    1698.7746    7026.4637   -141459.18   -134432.72   -134967.84    -1403.685    610788.76   -1063.8749   -1480.5746   -1666.6054    243.33276    488.07608    214.30337 
   39900    1692.3182    6999.7586   -141417.19   -134417.44   -134393.52    62.805528    610125.47     539.4241    182.08625   -533.09377   -84.526287 -0.084057359    748.73927 
   40000    1706.7317    7059.3759   -141448.57   -134389.19   -133815.61    1508.5749    609165.61    2608.0382    1050.4084     867.2782   -274.90358   -389.16413   -543.24382 
   40100    1695.7425    7013.9222   -141381.54   -134367.61   -134369.96   -6.1614221    610442.69    79.250546    207.03885   -304.77366    237.93457   -300.16009    381.52807 
   40200    1708.2102    7065.4911   -141410.67   -134345.18   -134935.96   -1548.1029    611423.51   -1883.3358    -744.7855   -2016.1872    370.72455   -567.67602    375.80921 
   40300    1712.0827    7081.5087   -141411.86   -134330.35   -134193.35    359.77238    610081.73    306.96265    584.11772    188.23677   -232.63805   -735.15338    181.00991 
   40400    1702.1575    7040.4561   -141380.53   -134340.08   -133719.71    1630.5261    609576.85    1856.8116    1459.4952    1575.2717   -522.38316   -113.68316    185.40151 
   40500    1696.0763    7015.3031   -141402.09   -134386.78   -134053.79    874.79009    609881.92    623.16098    367.12782    1634.0815    40.745766     -643.486    161.18808 
   40600    1691.2187    6995.2108   -141446.07   -134450.86   -134909.54   -1203.1611    610793.03   -1372.6375   -1442.0206    -794.8252   -131.55454   -10.595914   -100.70717 
   40700    1695.9662    7014.8474   -141485.47   -134470.62   -134806.96    -882.5596    610580.55   -1276.7196   -1175.3624   -195.59688   -456.23906   -455.68055    2.9312429 
   40800    1695.3993    7012.5028   -141488.51      -134476   -134118.48      940.009    609374.07    824.70974    634.37949    1360.9378   -485.43879   -468.55445    266.72333 
   40900    1701.9038    7039.4067   -141506.88   -134467.47   -134127.31    894.17484       609496    1064.2179    917.23899    701.06759    114.13363   -305.78558   -164.55849 
   41000    1703.9604    7047.9132   -141497.84   -134449.93   -134675.43    -591.8554    610434.25     -622.921   -306.46791   -846.17728    627.77775    -229.4324    180.62704 
   41100    1701.7363    7038.7138   -141468.86   -134430.15   -134509.74   -208.98537    610169.72   -1019.6633     554.8964   -162.18921   -243.12345   -689.64193    482.08883 
   41200    1698.8232    7026.6647   -141440.33   -134413.67   -134087.95    856.00509    609651.81     783.9393    942.91002    841.16596   -258.11135    225.30443    569.02728 
   41300    1706.7896    7059.6152   -141450.82   -134391.21   -133819.75    1503.0018    609159.71    1816.0738    1436.8815    1256.0502    102.94459    87.805744    474.57968 
   41400    1710.8447    7076.3881   -141438.64   -134362.25   -134589.85   -597.12217    610678.79    -507.4589   -377.84962   -906.05799    556.22661   -476.62152   -195.51487 
   41500    1707.1445    7061.0831   -141390.52   -134329.44   -134856.84   -1381.9538    611452.59   -1412.3999   -1082.9823   -1650.4792    406.34385    78.421102   -246.00647 
   41600    1714.0997    7089.8513    -141396.2   -134306.35   -134027.29    732.44934    610412.23    700.83864     980.2994    516.20998   -318.33336    -114.3675   -536.98928 
   41700    1713.5173    7087.4424   -141392.48   -134305.04   -133807.07    1308.3811    609791.61    1699.8605      1507.36    717.92275   -15.453643   -75.234741    -349.5421 
   41800    1693.3768    7004.1373   -141346.69   -134342.55   -134446.97   -273.94817    610710.26   -16.246038    367.29984   -1172.8983   -434.88798    155.14768    274.55664 
   41900    1697.2864    7020.3083   -141423.01    -134402.7    -134848.2   -1168.1342    611032.58   -1343.5014   -1069.9568   -1090.9444    97.263816    1132.5487    575.04972 
   42000    1701.8553    7039.2062   -141470.14   -134430.93   -134490.59   -156.70821     609936.3   -725.93385    166.30144    89.507786   -143.70999    385.10231     511.5531 
   42100    1698.6289    7025.8611   -141473.37   -134447.51   -133713.27    1932.0443    608881.92    1809.5344    1513.0243    2473.5741    574.23767   -272.30862     542.1374 
   42200    1697.3505    7020.5734    -141482.1   -134461.53   -134293.06      442.838    609485.89     151.5507    674.99818    501.96513    422.39172   -349.72756    319.59897 
   42300    1690.2074     6991.028   -141458.45   -134467.42   -135209.27   -1945.1903     611031.4   -1892.7757   -1433.6325   -2509.1627    -175.7948    238.66551    661.79784 
   42400    1696.7754    7018.1945    -141477.5    -134459.3   -134337.87    319.03895    609809.75    526.41313    128.19641    302.50731   -89.966587   -330.32285   -101.27997 
   42500    1708.4408    7066.4449   -141506.51   -134440.07   -134081.16    943.83273    609261.44    841.42574    1524.6137    465.45875   -27.315458   -141.43609   -537.54881 
   42600    1703.6725    7046.7223   -141461.48   -134414.75   -134267.74    386.12693    610002.69   -51.936571     207.5286    1002.7888    107.89603   -90.764485   -39.259732 
   42700      1710.19    7073.6798   -141458.07   -134384.39   -134501.96   -308.72603    610132.94   -800.42439    77.604722   -203.35843    198.94588    111.02223   -616.09841 
   42800     1708.134    7065.1758   -141424.48    -134359.3   -134593.43   -614.41375    610523.55   -1553.6089   -173.72485   -115.90752    301.34024   -26.266054   -722.68268 
   42900    1706.6406     7058.999   -141398.44   -134339.44   -133867.78    1239.5597    609638.05    761.93999    1159.6442     1797.095    52.693923    -284.0729   -321.25725 
   43000    1722.8947    7126.2293   -141449.22   -134322.99   -133973.18     919.6336    609434.48    1021.3822    6.3830102    1731.1356    255.73681    699.45594    8.2756872 
   43100    1703.1283    7044.4713    -141372.9   -134328.43   -134648.81   -840.29861    610856.31   -1018.0232   -1013.2552   -489.61744   -290.64098   -713.67122   -18.689803 
   43200     1689.934    6989.8974   -141355.11   -134365.21   -135120.17   -1977.3092    611730.95   -1448.6955   -2479.5283   -2003.7039   -497.48143   -163.44664     273.1815 
   43300    1699.0099    7027.4368   -141436.32   -134408.88   -134430.92   -57.846982    610210.86    91.087714    -397.9509    133.32225   0.64032505   -55.808465   -170.96716 
   43400    1699.3276     7028.751   -141469.22   -134440.47   -134137.27    796.96095    609553.28    623.56454    478.89551    1288.4228    144.88018    275.41899    101.96336 
   43500     1691.433    6996.0975   -141455.55   -134459.45   -134449.19    26.950282    610146.68     9.518769   -432.10668    503.43876    338.84196   -62.870598   -283.11284 
   43600    1695.8495    7014.3649   -141473.42   -134459.06   -134523.89   -170.20873    610236.83    64.917128   -24.835474   -550.70784    282.05798    661.12167    96.890603 
   43700    1689.2189    6986.9396   -141443.51   -134456.57   -135190.62   -1924.4943    611116.19   -1376.7403   -2644.1941   -1752.5485   -48.904398   -247.64435   -832.38798 
   43800     1688.018    6981.9723   -141429.62   -134447.65   -134601.61   -404.09158    610435.68   -257.10339   -459.77115   -495.40019    -302.3189    205.93638   -371.68724 
   43900    1698.9707    7027.2747   -141447.13   -134419.85   -133933.84     1277.895       609340    2156.2614    1005.4677    671.95587   -820.01369   -37.671085    132.90871 
   44000    1702.2899    7041.0038   -141422.28   -134381.28   -134353.82    72.095474    610179.73    990.66168   -386.84659   -387.52867   -300.12593   -184.72551    530.80821 
   44100     1718.204    7106.8276   -141456.95   -134350.13   -134884.69   -1401.3431    611177.32   -922.86047    -1694.702   -1586.4667   -454.52002    37.163033    116.69062 
[...]
 2089600    407.36887    1684.9572   -150495.67   -148810.71   -148972.82   -460.21251    564369.15   -201.14561   -856.52451   -322.96742   -370.94061   -510.69356    179.81553 
 2089700    405.66732    1677.9193   -150477.67   -148799.75   -148646.81    434.45617    563999.36    585.44725   -63.411359    781.33262   -474.14986   -261.84855    85.196148 
 2089800    408.89699    1691.2778   -150484.53   -148793.26    -148749.9    123.13117    564159.29    301.34406   -16.692224    84.741683   -282.66034   -329.99143    147.33916 
 2089900    407.26774    1684.5389   -150474.56   -148790.02   -148936.94   -417.04587    564438.92   -92.657548   -324.07974   -834.40031   -338.32933   -442.47716    119.12693 
 2090000    407.02623      1683.54   -150471.45   -148787.91   -148812.76   -70.534282    564298.09    176.43747   -325.86899   -62.171324   -97.511756   -461.88202    120.40435 
 2090100    410.83239     1699.283   -150484.81   -148785.53   -148607.75     505.0685    563948.22    628.69691    382.51533    503.99325    -206.4669   -347.21307    127.98576 
 2090200    407.65258    1686.1307   -150472.02   -148785.89   -148866.99   -230.19387    564419.27   -120.33576   -497.67438    -72.57148   -234.96223   -339.55636    253.34399 
 2090300    408.11709     1688.052   -150475.62   -148787.56   -148992.28   -581.02674    564513.96   -468.85196   -835.67485   -438.55341   -414.59893   -124.47582    231.66741 
 2090400    408.17733    1688.3012   -150480.68   -148792.38   -148625.23    474.86282    563954.68    692.44435     139.5894    592.55472   -413.30748   -307.27456    342.80531 
 2090500    407.38542    1685.0257   -150485.72    -148800.7   -148667.96    377.07209     563998.3    266.73115    294.87258    569.61254   -446.21484    -533.8815    482.65159 
 2090600    407.01333    1683.4867   -150492.16   -148808.67   -149081.29   -773.69329    564546.98   -746.44851   -723.58579   -851.04556   -249.45688   -453.32255    457.49088 
 2090700    404.72603     1674.026   -150486.85   -148812.82   -148796.26    47.035166    564089.73    222.17767   -374.02425    292.95207   -247.04365   -271.22016    368.28353 
 2090800    405.99114    1679.2587    -150492.3   -148813.04    -148543.9    764.88854     563757.8    1081.1287    429.74302    783.79388    -153.6055    -520.0589    197.44025 
 2090900    408.41759    1689.2949   -150499.79    -148810.5   -148909.59   -281.37778    564253.73   -28.739554   -761.76942   -53.624361   -258.80128   -372.95409    259.91101 
 2091000    404.10176    1671.4438   -150477.19   -148805.74   -149028.01   -630.79104    564543.27   -292.18087   -777.64637   -822.54587   -216.01731   -73.118443    103.74748 
 2091100    406.76099    1682.4429   -150478.02   -148795.58   -148670.46    355.43125    564009.35    401.56114    105.01338    559.71924   -478.30424   -312.49573    52.772926 
 2091200    408.95312      1691.51   -150475.19   -148783.68   -148695.64    250.06233    564125.35      431.354  -0.80134237    319.63433   -268.65718   -382.11607     307.0086 
 2091300    408.51121    1689.6822   -150470.18    -148780.5    -148971.4   -541.83003    564492.82   -528.18952    -625.5204   -471.78016    -185.3291    53.207054    203.13416 
 2091400    408.28911    1688.7635   -150472.15   -148783.39   -148917.43   -380.45921    564471.56   -145.20357   -667.93261   -328.24144   -423.14596   -290.35522    114.03445 
 2091500    406.21555    1680.1869   -150468.86   -148788.68   -148578.48     597.1143    563991.44    859.00213    274.22734    658.11343   -515.35873   -273.41316    53.894622 
 2091600    409.87523     1695.324   -150489.19   -148793.87   -148737.07     161.3096    564117.19    566.73339    -249.9544    167.14983    -393.9833   -585.61834    154.23324 
 2091700    407.13385    1683.9851   -150485.69   -148801.71   -149008.58   -587.11545    564527.21   -157.25301   -805.85073   -798.24262   -474.28697   -225.33526   -174.33933 
 2091800    407.10585    1683.8693   -150492.43   -148808.56   -148797.71    30.819818    564164.52    87.627622   -174.33853    179.17036   -330.13124   -163.15563    200.26779 
 2091900    404.85017    1674.5394   -150488.27   -148813.73   -148571.25    689.08741    563784.82    906.37042    210.83636    950.05545   -66.004801   -419.06873    300.70047 
 2092000    404.17943    1671.7651   -150489.36   -148817.59    -148948.8   -372.51264     564337.9   -524.67078   -500.29761   -92.569537    66.594757   -323.46648    275.23621 
 2092100    404.81456    1674.3921      -150493   -148818.61   -149064.25    -697.1488     564517.8   -660.75326   -772.38748   -658.30564   -186.89473   -411.73291    186.94593 
 2092200    407.29396    1684.6474   -150501.74   -148817.09   -148612.36    581.81676    563772.07    887.00833    315.15045     543.2915   -469.20454   -184.43871     53.10425 
 2092300    406.88937    1682.9739   -150496.19   -148813.22   -148602.51    598.69768    563872.31    531.15187    669.80949    595.13168    -284.1371   -402.72192    279.71769 
 2092400    407.27375    1684.5638   -150486.95   -148802.39    -148925.7   -350.04409    564399.92   -427.07748   -307.85701   -315.19778   -269.43559   -323.77706    212.07747 
 2092500    408.75756    1690.7011   -150482.33   -148791.63   -149022.65    -655.6657    564524.13   -791.92696   -706.31603   -468.75411   -301.93768   -187.17577    152.90501 
 2092600      407.835    1686.8852   -150475.29   -148788.41   -148569.54    621.81922    563940.11    775.25735    310.58312    779.61719   -367.41631     -334.253    421.36935 
 2092700    409.57073    1694.0645   -150483.44   -148789.37   -148603.03    529.38551    563953.87    735.08901    368.74116    484.32635   -205.93751   -485.67429    106.35675 
 2092800    409.48639    1693.7157   -150487.94   -148794.22   -149048.62   -721.87003    564634.49      -540.39     -884.442   -740.77808   -292.23638    -342.1582    69.426202 
 2092900    406.91028    1683.0604   -150485.06      -148802   -148916.58   -325.28047    564340.63    176.59022   -833.14233   -319.28929   -486.95929   -294.65888     432.9649 
 2093000    405.75694      1678.29   -150486.75   -148808.46   -148507.71    854.78931    563711.02    1109.8908    219.03349    1235.4437   -263.42565   -332.48992    157.30865 
 2093100    405.75751    1678.2923   -150490.78   -148812.49   -148714.56    278.18325    564010.35    547.52912   -220.69287    507.71349   -346.77143   -757.59919    229.22926 
 2093200    405.51878    1677.3049   -150491.63   -148814.33    -149233.1   -1188.0556    564747.45   -833.71245   -1310.5512   -1419.9032   -439.04539   -526.12943    216.76722 
 2093300    404.85105     1674.543   -150490.44    -148815.9   -148816.97   -3.0430804    564144.49    179.46341   -345.33682    156.74417   -329.21522   -591.25005    92.717606 
 2093400    404.03109    1671.1515    -150488.3   -148817.14   -148395.16    1199.6743    563562.82    1521.9572    951.83441    1125.2312   -219.81852   -412.22772     60.04161 
 2093500     402.8303    1666.1848   -150485.55   -148819.37   -148935.48   -329.61008    564421.78   -11.817652   -445.81905   -531.19353   -262.81924   -315.31012    222.99173 
 2093600    405.50063    1677.2298   -150497.84   -148820.61   -149051.11   -654.23832    564495.73   -290.45884   -943.83497   -728.42115   -279.22574   -558.25668    180.73098 
 2093700    404.08874      1671.39   -150494.57   -148823.18   -148695.39    363.05653    563966.77    660.58461   -80.325917    508.91091   -529.98156   -342.51655    272.62088 
 2093800    404.42598    1672.7849   -150501.72   -148828.94   -148748.06    229.76823    564001.45    611.58922   -94.539754    172.25522    -449.6095   -336.71247     155.2608 
 2093900    402.48801    1664.7691   -150499.53   -148834.76   -148941.42    -302.8529    564247.49   -80.630202   -556.98718   -270.94131      -547.28    124.30521    168.33251 
 2094000    402.25076    1663.7877   -150500.46   -148836.67   -148911.95   -213.76434    564190.39   -80.015496   -332.48727   -228.79026   -393.25151   -127.36289    493.31385 
 2094100    404.25961    1672.0967   -150506.87   -148834.77   -148677.54     446.7271    563912.26    645.29851     368.4902    326.39259   -497.20304   -278.23038    315.34537 
 2094200    403.04517    1667.0736   -150495.67    -148828.6   -148713.91     325.8548     563932.5    380.44941    282.12631    314.98868   -499.27971   -403.78923    95.991529 
 2094300    407.99372    1687.5417    -150505.8   -148818.25   -149076.56   -733.11946    564514.93   -749.23534   -1042.0385   -408.08457    25.311292   -428.56108   -37.539428 
 2094400    405.56263    1677.4863   -150491.63   -148814.14   -148887.99   -209.69172    564250.37   -20.289078   -826.02606    217.23997   -107.37671   -355.65955    131.84203 
 2094500    404.31592    1672.3296    -150486.2   -148813.87   -148522.53    828.04474    563710.38    964.75816    658.64512    860.73092   -267.61806   -431.70029    183.48042 
 2094600    404.62298    1673.5997   -150488.61   -148815.01   -148861.55   -132.16251    564255.16   -1.0561984   -515.17328    119.74195   -439.27893   -189.95615    292.75967 
 2094700    405.79904    1678.4641   -150496.09   -148817.63   -149184.86   -1041.9212    564695.21   -828.67401   -1298.0209   -999.06879   -321.11591   -183.60614     401.7649 
 2094800    402.41431    1664.4642    -150487.9   -148823.44   -148699.38    352.43299    563991.71    458.63257   -25.909007    624.57539   -349.59822   -64.440124    437.72914 
 2094900    403.96428    1670.8752    -150500.9   -148830.03   -148552.17    789.70583     563720.9    1084.3458    302.61562    982.15604   -12.211973   -211.73124    346.30124 
 2095000    402.01371    1662.8072   -150503.96   -148841.15    -149050.8   -595.12429    564394.88   -570.35012   -796.74967   -418.27306   -331.35148   -267.89929    635.68375 
 2095100    403.46781    1668.8217   -150520.14   -148851.31   -149004.98   -436.23446    564358.24   -386.53717   -606.91095   -315.25526   -539.13469    157.50245    446.95163 
 2095200    399.69773    1653.2279   -150508.44   -148855.22   -148591.64    749.17531    563686.62     808.4347    809.01385    630.07739   -337.35926   -405.51786    211.37468 
 2095300    401.63317    1661.2333   -150514.42   -148853.19   -148831.44    61.757573    564125.44     214.7649    138.13671    -167.6289   -442.15024   -470.88674    290.13958 
 2095400    400.27499    1655.6156   -150504.63   -148849.01    -149093.7   -694.50593    564475.58   -822.15427   -659.04571   -602.31779   -72.888547   -599.01402    431.78491 
 2095500    399.01304    1650.3959   -150492.82   -148842.42   -148855.07   -35.928303    564161.85    109.55517   -294.27742    76.937344   -188.20907   -430.75385    439.87214 
 2095600    402.23742    1663.7326   -150497.83    -148834.1   -148822.17    33.875659    564144.02    244.57561   -149.86034    6.9117071   -153.18903   -130.64539    510.38982 
 2095700    401.47735    1660.5888   -150488.17   -148827.58   -148825.55    5.7522597    564181.62    158.55236   -224.32274    83.027162   -392.52367   -302.85082    265.68133 
 2095800    406.41681    1681.0193   -150504.46   -148823.44   -148864.72   -117.21654    564173.26   -38.811822    -203.5828   -109.25501   -200.46947   -311.20741    329.54987 
 2095900    408.12742    1688.0947   -150510.23   -148822.13   -148680.59    402.14462    563913.75    366.25656    533.54817    306.62914   -165.77063   -618.06926    363.51342 
 2096000    403.00724    1666.9167   -150492.62    -148825.7   -148742.63     235.9689    564055.91    436.55586    121.52255    149.82829   -314.50917   -554.87302    316.46767 
 2096100    404.04321    1671.2017   -150502.56   -148831.36   -149046.64   -611.12459    564414.85   -295.67592      -1042.7   -494.99786   -496.20047   -269.03798    240.69337 
 2096200    402.71801    1665.7204   -150503.99   -148838.27   -148850.26   -34.070295    564101.44    149.53881      -205.19   -46.559698   -360.69375   -454.43934   -73.217194 
 2096300    399.96941    1654.3516   -150501.26    -148846.9   -148633.26    607.13262    563779.85    660.25208    503.15552    657.99027   -297.73575   -72.781006    128.77578 
 2096400    403.44016    1668.7073   -150520.99   -148852.29   -148911.09   -166.99839    564112.88   -183.21232   -414.92706    97.144214   -360.57223   -320.92424    442.52793 
 2096500    399.28555     1651.523   -150506.43   -148854.91   -149137.43   -801.89129    564478.86    -877.1266   -957.63652   -570.91076   -486.29754   -223.31373    120.46654 
 2096600    400.45802    1656.3726   -150510.07    -148853.7   -148790.03    180.90712    563916.39    460.24223   -269.08123    351.56035   -161.50832   -399.59964     -44.6337 
 2096700    398.28131    1647.3693   -150498.49   -148851.12   -148552.53    848.78485    563626.13    1137.2694    723.39438    685.69081   -300.87907   -242.87513    225.86759 
 2096800    403.26119    1667.9671   -150514.39   -148846.43   -149074.78   -648.24874    564385.69   -323.11624   -920.04069   -701.58928   -86.913552    -289.3613    356.12248 
 2096900    402.29534    1663.9721   -150505.87    -148841.9   -149033.93   -545.16765    564352.07   -411.77776   -942.89646   -280.82872   -567.77437   -500.44831    270.95405 
 2097000    403.44293    1668.7188    -150506.6   -148837.88   -148551.77    813.32565    563614.34    1405.0377    230.76934    804.16985   -576.39222   -409.92954    3.2939116 
 2097100    401.88544    1662.2767   -150498.73   -148836.46   -148827.77     24.65824    564105.62    143.57689    -381.8454    312.24323   -576.42888   -590.08892    154.83197 
 2097200     404.1023    1671.4461   -150506.13   -148834.69   -149145.15   -881.14981    564507.99   -634.57595   -1036.3159   -972.55761   -272.03609   -304.59465    251.47928 
 2097300     403.7445    1669.9661   -150505.17   -148835.21   -148718.35    332.03629    563854.42     748.8862   -128.29203    375.51469   -267.50761    -319.6874    99.158635 
 2097400    403.34952    1668.3324    -150507.9   -148839.57    -148530.8    877.70342    563633.65    960.02762    685.27424     987.8084   -560.76618     -609.103    270.84126 
 2097500    402.16059    1663.4148   -150512.16   -148848.75   -149033.15   -523.48125    564380.91   -444.71922   -754.41516   -371.30935   -461.49988   -503.11444    388.15374 
 2097600    396.72228    1640.9209   -150499.11   -148858.19   -149075.52   -616.93833    564419.82   -594.08648    -740.0016   -516.72691   -101.03385   -196.81264    180.90768 
 2097700    401.62045    1661.1806   -150522.03   -148860.85   -148682.96    505.51697    563814.18    889.88124      603.495    23.174671   -248.09269   -56.950399    455.20355 
 2097800    401.13124    1659.1572   -150519.54   -148860.38   -148708.53    431.55787    563768.13     801.8866    204.32723    288.45977   -381.53442    -436.5837    76.756009 
 2097900    400.29841    1655.7124   -150511.83   -148856.12   -149044.79   -535.60992    564367.08   -561.36387   -736.66739   -308.79849   -257.65304   -514.03684    457.98669 
 2098000    403.07655    1667.2034   -150515.82   -148848.61    -148923.1   -211.55518    564097.44   -10.506395   -513.98993   -110.16922   -91.539576   -438.31564    363.28235 
 2098100    401.97638    1662.6528   -150505.56   -148842.91   -148682.02    457.16667    563838.35    387.53833    386.11551    597.84617   -223.34385   -558.16623    368.53973 
 2098200    403.44242    1668.7167   -150508.65   -148839.93   -148805.84     96.83682    564053.21    195.98827   -2.9817713    97.503963   -736.54496   -316.02311    182.83332 
 2098300    402.97071    1666.7656   -150506.26   -148839.49    -148933.9   -268.06772    564226.54   -144.46432   -754.03693    94.298089   -400.83531   -360.55614    350.69378 
 2098400    403.86863    1670.4796   -150512.07   -148841.59   -148914.84   -208.05117    564117.09    -308.1282    -600.5938    284.56849   -416.09005   -270.02835    173.94801 
 2098500    403.12674     1667.411   -150510.52   -148843.11   -148553.01    824.57457    563663.89     750.5949    591.18698    1131.9418   -262.23024   -387.37419   -93.465163 
 2098600    399.90638    1654.0909   -150499.12   -148845.03   -148794.84    142.59408    563955.68    200.74104   -99.595042    326.63624   -389.92073   -228.37219    93.026207 
 2098700    406.11855    1679.7857   -150526.26   -148846.48   -149296.57   -1277.1599    564630.49   -1137.2048   -1573.5352   -1120.7398   -662.51764   -334.61174    84.765571 
 2098800    399.96905    1654.3501   -150507.15    -148852.8    -148740.9    317.92064    563941.65    447.73986   -30.813874    536.83593   -577.27103   -664.84488    221.95419 
 2098900     400.8207    1657.8727      -150516   -148858.13   -148529.02     935.5519    563604.27    991.20146    732.11322     1083.341   -313.79743   -469.50772    210.08201 
 2099000    400.46863    1656.4165   -150519.38   -148862.96   -149027.81   -468.11248    564222.94   -434.89372   -651.52666   -317.91706    -28.21384   -124.29572    32.150286 
 2099100    399.88426    1653.9994   -150520.91   -148866.91    -149107.6   -683.31965    564358.25   -149.21082   -1217.1316   -683.61658   -571.42509   -299.10345    261.23611 
 2099200    399.57336    1652.7135   -150521.83   -148869.12   -148733.04    386.66757    563866.98    524.81857      307.178    328.00613   -466.05077   -160.88937    259.22082 
 2099300     400.8031    1657.7999   -150524.98   -148867.18   -148709.68     447.5374    563831.85    907.62061    236.32213    198.66947   -263.97451   -309.30298    209.22255 
 2099400    401.16526    1659.2979   -150518.04   -148858.74   -148994.61   -385.76561     564288.7    129.63047   -568.28369   -718.64362   -240.67038   -478.56727    121.52425 
 2099500    402.73652    1665.7969   -150509.85   -148844.05    -148884.9   -116.01745    564169.01    126.35012     -44.0021   -430.40037    -152.3559   -286.89421    397.63872 
 2099600    404.20915     1671.888   -150511.06   -148839.17   -148668.49    484.99709    563837.45    411.41659    504.61213    538.96255   -88.398541   -359.04056    262.27547 
 2099700    402.06933    1663.0373   -150503.92   -148840.88   -148856.27   -43.710618    564116.31    160.98629   -311.53132    19.413177   -101.65313   -389.89818    206.48363 
 2099800    401.61013     1661.138   -150506.57   -148845.43   -149048.83   -577.42788    564368.03   -528.95953   -858.98527   -344.33884   -192.77266   -507.12336    216.22061 
 2099900    400.35296    1655.9381    -150508.7   -148852.76   -148744.44    307.78746     563886.6    513.80648   -14.978353    424.53424   -386.57427    -338.2935    20.138774 
 2100000    401.69726    1661.4984   -150521.32   -148859.82   -148681.47    506.89824    563724.41    589.10972    281.87698    649.70803   -336.23508   -319.72575    316.24003 
Loop time of 38768.7 on 32 procs for 1600000 steps with 32000 atoms

Performance: 3.566 ns/day, 6.731 hours/ns, 41.270 timesteps/s
97.0% CPU use with 32 MPI tasks x no OpenMP threads

MPI task timing breakdown:
Section |  min time  |  avg time  |  max time  |%varavg| %total
---------------------------------------------------------------
Pair    | 19338      | 20254      | 21456      | 382.3 | 52.24
Neigh   | 147.64     | 161.16     | 191.77     |  87.4 |  0.42
Comm    | 9334.1     | 10389      | 11280      | 546.9 | 26.80
Output  | 54.513     | 55.738     | 56.367     |   7.2 |  0.14
Modify  | 6671       | 6943.1     | 7167.2     | 190.3 | 17.91
Other   |            | 965.7      |            |       |  2.49

Nlocal:    1000 ave 1014 max 990 min
Histogram: 5 2 5 4 4 4 2 4 0 2
Nghost:    3695.56 ave 3715 max 3673 min
Histogram: 2 0 3 4 4 7 3 5 2 2
Neighs:    73169.9 ave 75076 max 70930 min
Histogram: 2 1 3 3 3 7 5 2 3 3

Total # of neighbors = 2341438
Ave neighs/atom = 73.1699
Neighbor list builds = 25045
Dangerous builds = 0
Total wall time: 15:21:41
