ITEM: TIMESTEP
20000
ITEM: NUMBER OF ATOMS
32000
ITEM: BOX BOUNDS pp pp pp
-4.2785160730510725e+01 4.2785160730510725e+01
-4.2785160730510725e+01 4.2785160730510725e+01
-4.2785160730510725e+01 4.2785160730510725e+01
ITEM: ATOMS id type xu yu 
360 2 -24.2873 -40.8994 
26655 1 46.023 47.1109 
13441 3 -9.51259 45.2236 
7627 2 -21.8896 -0.0513747 
27801 1 50.1387 -35.5399 
12 3 -33.3169 -42.0643 
7370 1 -21.5715 -0.472524 
8793 2 -35.4341 47.4886 
5024 2 -36.1995 -41.0547 
29741 1 45.8875 -0.617325 
4206 2 -28.7141 43.6519 
4990 1 -30.2015 -39.5136 
48 1 -32.2908 -37.4127 
9155 2 -25.1789 46.4031 
24384 2 43.8387 -18.4622 
11126 1 -12.6513 -11.3479 
4218 2 -29.9451 44.0072 
22 2 -42.0992 -33.2581 
4992 1 -21.4379 -42.7292 
4612 2 -20.5885 -39.4094 
9191 3 -18.8526 -38.0963 
390 2 -23.6623 -41.1016 
14127 1 -0.236263 -17.7746 
28573 1 43.7285 -18.036 
28990 1 54.8381 -14.1742 
11398 1 -22.1734 -14.2835 
4623 1 -17.1882 -41.7953 
4584 2 -19.4937 -41.0005 
9166 1 -10.8345 -40.5579 
9190 1 -15.8049 -40.7524 
14152 3 -1.23588 -18.1177 
14455 2 -9.27529 -39.7168 
8784 1 -14.07 43.3095 
14145 2 -11.7014 -37.9387 
13694 1 -5.63894 46.8927 
13386 1 -3.41924 44.442 
9181 1 -7.33435 -37.5898 
13347 1 -6.67871 44.4308 
9523 3 -4.69978 -39.0269 
18288 2 -0.755727 46.1027 
15645 2 -9.38975 -3.97909 
403 2 -40.5006 -36.2857 
356 1 -40.3874 -33.3615 
27899 1 44.4246 -30.3768 
5020 3 -24.103 -37.7619 
16054 1 -6.88919 -2.49371 
819 3 -35.1378 -36.4972 
404 3 -33.0816 -39.0339 
5046 2 -42.1593 -29.3248 
753 2 -30.4803 -35.0856 
493 2 -15.0055 -41.4063 
417 1 -31.3242 -36.693 
4605 1 -29.7637 -38.2704 
28160 2 54.2524 -24.3884 
13361 3 -27.696 52.6838 
343 2 -32.2318 -29.7019 
418 1 -31.2523 -40.741 
4669 1 -26.3021 -36.265 
5021 1 -31.1621 -33.4263 
4927 3 -23.8586 -37.2559 
4985 2 -26.8062 -35.6244 
5704 3 -24.6545 -34.5596 
4596 2 -22.0365 -35.7352 
9096 2 -20.5266 47.8049 
4588 2 -21.1237 -37.3007 
352 2 -18.106 -36.5674 
21 1 -17.7485 -38.9745 
4960 2 -21.857 -35.4396 
5689 1 -13.4993 -36.8266 
5327 1 -16.5285 -38.1599 
5679 2 -16.4928 -38.9571 
4696 3 -13.6411 -36.2434 
9189 3 -15.6708 -35.8963 
9491 2 -11.3965 -37.601 
14102 2 -9.24578 -36.4237 
9547 1 -11.7446 -35.7389 
5401 1 -7.88973 -36.1694 
5749 2 -10.441 -28.454 
13650 1 -6.23419 49.218 
6245 1 -10.9184 -3.85272 
13284 3 -2.70486 47.9541 
14538 3 -4.65922 -33.3101 
446 1 -41.9204 -26.1494 
14500 2 -0.367275 -27.9431 
6865 2 -32.7084 -1.36477 
28360 1 46.1407 -18.9502 
702 2 -36.9182 -28.1252 
841 2 -42.4362 -17.5623 
23 2 -42.5896 -31.1612 
731 3 -38.2414 -34.2729 
15400 1 -8.89093 -0.513523 
28533 1 45.2843 -31.4008 
27430 1 49.511 -33.8461 
773 1 -33.6411 -31.7921 
377 1 -38.1322 -31.2632 
29342 1 45.8547 -6.17879 
28198 2 49.9962 -30.1449 
802 2 -31.5548 -32.9688 
5325 1 -33.1662 -34.6007 
11377 2 -27.7335 -14.3332 
5705 2 -34.9747 -28.7278 
14472 2 -7.24184 -41.0906 
5760 1 -31.6309 -30.5147 
701 2 -30.1221 -31.1632 
9899 1 -25.5825 -31.2209 
5375 2 -20.131 -37.9728 
805 1 -21.1825 -29.8579 
10670 1 -16.0896 -36.1151 
5706 2 -23.9239 -29.3032 
10302 1 -20.2959 -32.9174 
10326 2 -13.5942 -34.149 
9179 1 -15.4228 -32.315 
9936 1 -18.3594 -32.3243 
18275 2 -6.38419 43.2244 
6156 2 -18.6552 -1.6594 
9557 1 -15.7693 -31.9163 
10625 2 -10.7746 -30.4887 
9141 2 -8.51378 53.9006 
11075 2 -5.85018 -0.0673523 
15328 2 -7.11645 -5.71071 
9946 1 -7.15546 -32.8281 
13762 1 -3.8923 -32.829 
9509 2 -4.54023 -30.4188 
14097 2 -7.43918 -33.0414 
9507 2 -4.79461 -35.6184 
5366 2 -1.87904 -35.3645 
13737 2 -1.08116 -32.4761 
11433 2 -11.3675 -3.74509 
27883 3 42.7345 -25.8187 
14112 2 -3.74932 -30.265 
8838 1 -8.66887 43.6365 
10403 1 -1.52329 -12.8665 
18296 3 -2.64193 54.4817 
5025 2 -39.5017 -28.817 
783 3 -42.5433 -28.7041 
31675 2 46.9433 58.4112 
14542 2 -0.801286 -29.0991 
15644 1 -11.3364 -1.66556 
28176 1 51.9047 -32.0409 
28193 2 48.9035 -29.791 
3949 2 -39.9628 45.3536 
5676 3 -34.4433 -28.7712 
6918 3 -22.801 -1.17168 
70 1 -32.2995 -40.8057 
13 2 -28.3276 -29.8271 
454 2 -30.3221 -26.1565 
6081 1 -31.4851 -27.6555 
14828 1 -2.20416 -28.5366 
27830 3 53.7425 -29.8858 
2235 2 -40.2418 -1.5884 
396 1 -28.021 -27.2384 
5352 2 -29.2738 -25.063 
380 2 -28.5058 -25.3743 
4607 2 -21.32 -41.5763 
4615 2 -29.7352 -32.1417 
5031 2 -22.8036 -28.3727 
1122 1 -24.3919 -26.4154 
4618 2 -21.318 -28.0102 
10012 1 -19.1106 -28.2574 
5408 1 -18.3384 -30.7808 
5740 1 -22.4754 -27.0232 
9895 2 -17.5942 -34.0036 
5001 2 -20.543 -25.4141 
862 3 -42.4452 -22.2226 
10296 2 -18.716 -23.2508 
1446 1 -24.4713 -13.1302 
6498 2 -29.1696 -3.9081 
9566 1 -15.5315 -28.2851 
9922 1 -14.1934 -25.8025 
9562 1 -12.5059 -28.485 
9585 2 -12.2638 -24.2284 
14176 1 -12.0817 -25.6633 
18301 1 -1.87741 46.4912 
9567 2 -6.89661 -29.8944 
9551 1 -4.45622 -27.9681 
9913 2 -4.98608 -22.5369 
19163 1 -4.65076 -31.103 
9129 2 -20.3834 45.072 
10324 3 -6.94813 -27.3274 
14459 1 -2.26135 -25.6372 
11511 3 -23.2159 -1.14053 
27797 2 45.1829 -29.759 
381 2 -40.0758 -28.1776 
760 1 -41.7611 -23.146 
27753 2 45.7753 -26.0166 
766 1 -36.1364 -25.4583 
5744 2 -36.0193 -22.3626 
744 2 -34.3966 -23.6569 
1174 3 -38.8513 -24.2307 
1153 1 -33.099 -23.8573 
763 1 -32.5717 -22.1819 
1126 1 -29.6659 -21.2082 
10363 1 -27.705 -22.8562 
9921 2 -26.4141 -24.4924 
739 3 -30.1197 -23.303 
29420 1 43.3892 -2.85839 
5762 1 -25.4837 -24.7997 
10368 1 -23.3813 -23.8884 
16003 1 -5.6164 -0.00512452 
2001 1 -32.8299 -2.07806 
9908 1 -5.38842 -21.6541 
29406 1 44.2824 -6.75247 
4663 1 -20.9371 -41.5629 
6055 1 -19.9063 -25.8173 
9577 2 -16.536 -25.7583 
10701 2 -15.28 -23.8604 
10651 3 -15.7593 -22.6028 
9186 3 -17.5378 -28.1057 
10295 2 -16.2408 -22.6517 
10312 3 -9.78702 -22.0387 
14071 3 -10.1844 -24.2368 
6514 2 -17.425 -8.06138 
4969 2 -9.7669 -27.5452 
5361 3 -3.68252 -19.9758 
10279 1 -5.75321 -25.6603 
10636 3 -10.1506 -24.5483 
9945 2 -7.14069 -27.7291 
348 3 -23.4695 -40.553 
9928 1 -3.54562 -24.8663 
15259 1 -0.384964 -4.87591 
14514 2 -3.2068 -22.4775 
13406 1 -24.5892 43.1737 
28600 3 47.3492 -20.4341 
1533 2 -39.8868 -18.8123 
2389 2 -27.6286 -5.09828 
13710 2 -14.4183 50.8545 
20264 1 -0.635539 -8.55796 
1897 2 -35.4392 -16.815 
28956 1 48.1316 -18.4685 
5765 1 -33.9017 -20.3022 
5338 3 -35.8121 -19.4264 
6463 2 -36.6795 -21.11 
5736 2 -29.8252 -17.4192 
5379 1 -30.6773 -20.6254 
6086 2 -31.2424 -20.9565 
11093 2 -0.468938 -0.133271 
2246 2 -27.942 -1.11207 
6469 1 -27.5404 -19.28 
6130 2 -29.1152 -19.7554 
6082 1 -25.4554 -21.6128 
6158 2 -23.5179 -23.2817 
10676 2 -20.7493 -23.4288 
9149 2 -17.323 43.6308 
5748 1 -24.285 -18.068 
6872 2 -24.7239 -6.20196 
27907 3 43.2325 -32.3054 
5709 2 -18.318 -21.4582 
17994 2 -1.89583 45.1929 
9600 1 -22.2329 -18.2096 
6490 1 -16.3714 -18.1556 
10320 2 -21.6801 -19.3313 
11089 2 -15.0862 -20.5835 
5776 1 -19.1363 -20.4566 
28234 1 44.0178 -30.2283 
10658 1 -9.8459 -21.7364 
10325 1 -12.417 -22.2201 
1547 2 -32.7954 -17.2392 
9978 2 -8.62568 -18.8228 
10685 2 -11.6379 -21.2309 
9553 1 -4.24572 -19.5651 
10650 1 -5.2869 -13.4264 
15563 2 -6.6454 -23.1358 
19465 2 -9.18174 -17.633 
9894 1 -2.02818 -21.2362 
19519 2 -1.38683 -18.8087 
8888 2 -22.7774 43.5411 
798 1 -40.1229 -20.5566 
14934 2 -0.238753 -15.1609 
28197 3 44.3585 -11.8971 
782 1 -33.9266 -14.8681 
1508 1 -39.2058 -16.3129 
5753 1 -38.9544 -12.5486 
13803 1 -1.41403 -33.0582 
2692 1 -31.8651 -17.8974 
455 2 -42.5097 -8.89863 
6117 1 -32.3546 -10.3045 
1891 2 -32.3484 -15.23 
1495 1 -31.7369 -12.0125 
5385 1 -28.5056 -16.4554 
1173 3 -27.7104 -17.9733 
1556 1 -42.1821 -5.73423 
1107 2 -23.7547 -42.4548 
4276 2 -34.7726 43.7192 
11079 1 -20.0126 -14.4988 
5756 2 -25.8598 -15.948 
9933 2 -21.8703 -16.2206 
10688 1 -19.3306 -18.5402 
10747 1 -16.5005 -12.6002 
9535 1 -17.5926 -15.6327 
6191 2 -19.3697 -17.5071 
59 1 -35.1192 -40.5029 
10348 2 -14.956 -16.6425 
10728 2 -14.8961 -18.5581 
5387 2 -14.9389 -14.5095 
10739 1 -13.2988 -18.8294 
11081 2 -10.9043 -18.4044 
11076 1 -9.6311 -11.2228 
10632 1 -7.12606 -15.6721 
9923 1 -7.59984 -14.0338 
14895 2 -8.45107 -12.6924 
15245 1 -6.77253 -11.278 
14888 2 -7.65971 -12.2559 
13738 3 -1.14688 -42.1142 
10750 1 -9.59079 -9.7281 
9538 2 -3.62592 -17.8577 
19847 1 -0.0471572 -15.8239 
15594 3 -1.61873 -15.0068 
10331 2 -1.7175 -23.7072 
5 1 -36.7696 -40.8549 
16160 2 -5.717 -0.657099 
1542 1 -42.7604 -11.7918 
1592 2 -41.0859 -10.9166 
6150 2 -38.3995 -8.28488 
6143 2 -36.6657 -14.5503 
28953 2 48.7811 -11.5574 
1496 2 -30.8624 -8.72757 
1906 1 -37.497 -7.038 
5730 2 -38.8638 -10.1478 
2231 1 -35.0105 -12.0812 
1504 1 -34.8634 -9.93561 
1860 2 -26.6048 -11.5698 
1864 1 -29.1173 -11.1195 
28971 2 55.4505 -9.17689 
7267 2 -27.9306 -9.46777 
91 2 -36.6659 -39.5612 
6145 2 -26.1062 -11.0493 
1204 2 -25.2159 -12.9949 
6111 1 -23.5022 -9.86865 
5392 1 -22.2636 -11.5705 
4613 3 -29.222 -40.3362 
6157 2 -21.8633 -8.82861 
5355 1 -24.3963 -7.63585 
6120 3 -17.8524 -13.5604 
11428 2 -19.1766 -11.8889 
6433 3 -17.4534 -9.71278 
6155 2 -19.4887 -13.9083 
19799 1 -13.2677 -14.7975 
15299 1 -15.0323 -9.18657 
10689 2 -15.7893 -6.72897 
15627 2 -3.49282 -1.39099 
14891 2 -10.8759 -11.8075 
20233 2 -12.914 -10.5776 
10310 2 -14.6367 -12.4352 
15256 1 -11.8509 -8.77869 
14898 2 -3.76525 -10.7252 
14766 2 -8.08086 -5.91632 
11048 1 -9.09666 -8.43069 
13839 2 -1.27261 -32.6396 
11483 3 -24.6302 -2.34297 
15984 1 -5.8666 -8.40499 
9470 1 -13.2384 -30.7442 
20197 3 -1.1834 -11.5601 
10691 3 -10.8597 -16.5597 
29337 1 43.3466 -5.80305 
15696 1 -0.681777 -0.501537 
29361 1 46.9956 -2.98016 
6165 2 -41.2553 -3.75161 
388 2 -28.5213 -34.6144 
1933 1 -36.7065 -6.59266 
6554 2 -37.1867 -1.56537 
1892 1 -36.7028 -3.8607 
428 1 -33.9476 -40.0478 
1969 1 -32.9397 -5.0625 
11108 2 -26.7798 -17.8775 
1907 2 -34.7559 -6.04454 
6468 2 -30.8011 -4.06629 
2264 1 -30.4134 -5.77907 
2281 1 -32.3657 -7.57904 
7287 2 -31.8875 -2.56017 
1931 1 -29.9256 -9.11518 
7253 1 -28.9493 -7.06646 
1884 1 -26.6316 -5.76172 
27887 2 44.4889 -34.9304 
2291 2 -25.7324 -9.77521 
6538 2 -22.0823 -3.89108 
10703 1 -27.0782 -8.85687 
5817 1 -23.9755 -5.13063 
6476 1 -25.5432 -6.87363 
6945 1 -23.0102 -6.06392 
1478 3 -18.2655 -6.9089 
15681 2 -17.5239 -7.44907 
11464 2 -20.404 -7.17554 
11450 1 -20.4131 -7.13288 
16774 2 -18.9427 -2.11512 
11096 3 -16.7465 -2.40042 
10741 1 -18.9179 -6.88634 
10321 1 -13.2491 -7.85594 
10708 2 -7.45142 -8.29328 
11077 1 -11.8754 -5.30672 
10742 1 -14.122 -3.53009 
29013 2 43.3259 -28.8398 
14540 1 -8.63499 -4.54075 
10660 2 -4.77132 -4.502 
15642 1 -5.15426 -7.30363 
15683 2 -9.28954 -6.93781 
10679 1 -3.06 -8.17108 
28194 1 44.3174 -26.2058 
14806 3 -0.978662 -23.0905 
6460 1 -28.7949 -16.6107 
6100 3 -34.7926 -18.2541 
2245 1 -42.2308 -2.51078 
6617 2 -26.1242 -0.239008 
15745 1 -1.56587 -6.28409 
15018 2 0.0413043 -21.2499 
2724 2 -32.7284 -5.07772 
364 2 -37.5891 -41.0084 
1246 2 -41.9285 -26.9681 
8453 2 -38.0407 45.5135 
1890 2 -35.0188 -1.38899 
2340 3 -31.82 -3.38878 
2665 2 -29.2992 -3.32392 
11088 2 -30.6125 -0.739377 
29086 2 42.9402 -12.9717 
1932 2 -27.4146 -1.62701 
1512 2 -25.1815 -4.31926 
2633 3 -26.6423 -2.58866 
6114 1 -28.3968 -4.26706 
27913 1 43.3778 -10.9878 
6561 2 -24.3972 -4.13136 
11807 2 -22.9854 -3.28021 
6842 2 -20.5385 -1.912 
11816 1 -20.8043 -2.4951 
19534 3 0.00381602 -15.553 
11460 1 -19.1337 -4.14297 
11103 1 -8.05372 -0.395858 
81 2 -41.3593 -37.7106 
7218 2 -16.2806 -4.8688 
11083 1 -15.3776 -1.31615 
10778 3 -1.49094 -8.54677 
14875 3 -12.9346 -1.00648 
1464 3 -42.5341 -25.1902 
11045 1 -1.97198 -16.4941 
1529 3 -42.103 -22.2295 
6980 3 -17.3072 -3.58684 
6513 2 -15.0769 -2.54689 
11085 2 -6.56803 -0.168574 
9184 3 -1.28865 -20.0067 
11043 1 -3.59087 -9.49525 
15265 1 -5.76514 -4.96555 
11082 2 -4.49764 -1.17389 
14881 2 -0.425186 -15.0861 
15675 2 -1.69731 -0.0627906 
11104 3 -3.1137 -4.45585 
2359 1 -37.4645 -0.227184 
16023 1 -1.87119 -2.14925 
6101 2 -22.7333 -20.4599 
14 1 -42.6528 -35.2316 
4569 1 -37.189 47.5953 
28173 2 47.7212 -39.1701 
358 2 -39.9796 -39.7902 
4231 2 -31.8841 46.1665 
9902 1 -2.74066 -33.5566 
374 3 -34.0173 -39.3098 
389 2 -39.5406 -42.1158 
4614 2 -31.5916 -35.0179 
4130 2 -30.109 48.0074 
8 1 -31.8644 -37.7222 
432 3 -34.9971 -39.1014 
28650 2 43.9024 -4.18114 
4604 1 -28.801 -37.3601 
4682 1 -28.141 -37.7619 
1610 3 -37.8204 -0.654966 
3 1 -25.0799 -36.2325 
4980 2 -26.9047 -40.3006 
4644 1 -22.1514 -41.9566 
4648 2 -22.7922 -39.86 
5067 2 -26.2632 -38.7375 
9246 2 -24.978 -40.6327 
1977 1 -40.5892 -0.843142 
9675 1 -2.42281 -32.7959 
4622 1 -17.8542 -40.4331 
13371 2 -20.9989 46.1344 
13341 2 -20.1914 43.0345 
19218 2 -0.165091 -20.6757 
5381 2 -41.9506 -22.243 
8432 2 -15.4448 45.8401 
13389 1 -13.7166 46.6654 
4599 2 -6.15981 -34.7156 
12964 2 -13.6331 47.3259 
9188 1 -10.3895 -38.0202 
18300 2 -8.05284 45.384 
9591 1 -10.5435 -40.3475 
17982 2 -7.76081 46.3851 
9503 1 -0.0228019 -42.4154 
9169 1 -3.59977 -39.1386 
9521 2 -7.87349 -42.0523 
10674 2 -2.36319 -11.5051 
18286 3 -1.71327 48.2006 
17943 1 -2.61856 44.5313 
13302 3 -8.82595 46.9774 
876 1 -41.2862 -42.3634 
27461 3 46.1644 -37.4718 
27854 2 43.5759 -38.6011 
11499 3 -19.9565 -1.23826 
4600 1 -37.9343 -36.1732 
27465 3 48.0582 -38.0078 
4237 2 -35.1565 45.5156 
5420 2 -33.624 -35.435 
5054 1 -33.2286 -34.5971 
5411 2 -28.9961 -33.049 
751 1 -34.8404 -32.994 
4657 1 -31.0728 -35.2235 
8833 1 -29.3213 51.0626 
4625 2 -29.9617 -30.2819 
1154 2 -28.3153 -35.227 
372 2 -26.0739 -35.8582 
13701 3 -27.7548 44.9442 
9173 1 -23.3028 -37.7532 
4991 1 -24.6867 -33.6363 
5003 1 -27.472 -37.8526 
13338 2 -22.4302 46.0798 
5340 2 -22.6047 -34.9763 
9907 1 -19.082 -35.8927 
5404 1 -20.7991 -34.7276 
4675 3 -19.6144 -37.5944 
5376 1 -22.4081 -37.2105 
5029 2 -11.8396 -35.205 
4619 2 -13.5874 -36.8272 
9174 3 -17.061 -38.2416 
13721 2 -11.1643 -37.2326 
9608 2 -16.7624 -35.9831 
5030 3 -10.6027 -35.686 
9508 3 -12.8676 -33.691 
9558 1 -9.26573 -35.2222 
14479 2 -2.96779 -36.6581 
9210 1 -4.46097 -36.3085 
9947 3 -4.36379 -33.1983 
14070 3 -3.07736 -35.1666 
13735 3 -2.29536 -34.6055 
29705 1 45.5819 -1.14167 
17909 1 -0.868817 46.7686 
28178 1 43.1834 -28.8788 
13753 3 -3.54698 -33.2763 
11508 1 -13.2813 -0.680654 
4266 1 -36.5585 50.3474 
27466 1 44.711 -34.3039 
385 2 -40.9748 -33.2451 
31983 2 44.7383 54.3271 
27431 1 44.9925 -36.2363 
27837 2 47.1777 -31.7995 
27447 1 47.4461 -32.7044 
28191 2 53.0401 -37.2417 
26 1 -37.0061 -34.0781 
27840 2 47.281 -34.9026 
399 1 -35.8668 -26.7309 
27449 2 49.3033 -30.534 
1130 1 -33.4394 -30.7634 
5734 2 -36.3876 -32.4209 
733 3 -31.6503 -28.1954 
5027 2 -36.7084 -28.4569 
376 2 -33.4524 -33.4954 
5369 1 -29.6431 -28.4619 
818 1 -31.4235 -32.265 
5722 1 -29.7172 -26.4609 
4988 1 -25.0669 -31.8081 
1887 2 -28.9612 -29.0165 
5049 2 -27.7057 -30.7947 
5373 1 -24.4879 -34.8841 
4640 1 -22.187 -33.015 
5792 2 -22.8305 -34.9603 
5732 2 -22.8471 -30.6982 
5322 1 -21.5104 -32.453 
11062 3 -20.6823 -30.647 
6466 2 -18.8034 -31.8851 
9909 2 -19.9888 -35.1135 
5330 1 -17.4904 -34.474 
9546 2 -16.724 -30.0067 
9980 2 -14.9489 -33.0911 
9583 1 -18.0926 -33.5026 
9920 2 -19.1264 -29.5694 
4998 1 -12.6091 -31.6302 
9977 1 -8.9269 -31.1181 
9575 2 -12.3226 -32.8711 
9170 1 -13.5636 -30.4598 
13783 2 -11.225 -32.0689 
14104 1 -9.12897 -30.0174 
14120 2 -7.99641 -35.4043 
9580 1 -10.7057 -32.6802 
14169 2 -6.0053 -30.1355 
9927 1 -8.33187 -32.883 
13758 3 -1.64676 -32.2753 
14106 1 -6.1367 -31.2371 
14111 1 -2.1369 -30.9414 
28154 2 44.7736 -27.522 
771 1 -41.2234 -26.8133 
18 1 -38.7946 -29.8573 
1152 1 -41.2351 -17.6649 
27811 3 47.3407 -26.6047 
757 3 -37.6456 -26.4667 
5357 2 -32.1633 -27.3747 
1184 2 -32.2203 -25.7231 
5002 2 -24.4182 -26.3386 
4993 2 -30.9906 -23.5935 
1469 2 -27.8111 -28.3966 
5702 1 -28.9402 -23.992 
785 2 -23.9306 -26.4409 
4595 1 -26.3394 -27.7561 
5333 3 -23.0475 -29.0137 
5793 1 -20.7963 -27.155 
5713 2 -25.6088 -29.2322 
9937 2 -19.5688 -24.6958 
10329 2 -20.2357 -28.2316 
6142 1 -18.3298 -28.7072 
10354 2 -18.1177 -26.0574 
10309 1 -18.5243 -25.5052 
9588 1 -11.931 -30.0725 
9576 2 -14.3729 -30.0188 
10327 3 -14.6542 -26.7187 
5790 1 -14.5723 -29.1118 
5848 3 -16.6436 -31.1882 
9624 1 -12.1886 -27.2643 
5320 2 -13.9579 -26.9235 
10277 2 -6.97645 -28.6265 
14103 2 -11.1155 -29.4323 
9976 1 -4.48996 -28.1394 
14539 1 -6.70207 -29.4237 
14122 2 -7.19512 -25.0025 
14574 2 -9.67726 -24.4907 
19443 2 -5.51178 -27.4893 
9561 1 -9.17084 -27.051 
14478 2 -3.56331 -31.0401 
9896 1 -1.99019 -27.2608 
14630 2 -0.24431 -18.4717 
14853 1 -2.0542 -25.7242 
1249 2 -36.4086 -21.4147 
28608 1 45.4976 -24.4272 
28184 1 48.326 -23.9962 
472 2 -40.3924 -19.4423 
14527 1 -0.459617 -12.0646 
5710 1 -34.0096 -26.1006 
27824 1 46.211 -25.9589 
27805 1 50.3489 -24.3668 
5746 1 -34.2484 -20.4154 
1499 2 -40.3341 -24.3768 
1168 1 -36.7118 -21.6623 
5755 2 -34.2844 -18.4867 
5015 2 -37.8968 -24.4792 
5371 1 -33.2386 -23.1968 
5743 2 -32.4324 -27.1584 
28210 1 54.2078 -24.7464 
5798 2 -32.1989 -18.9698 
5393 2 -33.9199 -20.7132 
6131 1 -25.9003 -20.8435 
1188 1 -26.6519 -25.5015 
6451 2 -28.9207 -20.8476 
6076 1 -30.5609 -20.9703 
9570 1 -22.0471 -25.745 
9983 2 -25.634 -23.4843 
5782 1 -23.1581 -24.0636 
10673 1 -21.8227 -22.8412 
9924 2 -19.9679 -23.3187 
10011 1 -17.415 -23.1495 
9961 1 -18.0842 -23.3101 
10334 1 -20.9464 -22.206 
6126 2 -16.3297 -25.5165 
9935 2 -18.0838 -21.3212 
6200 2 -15.3897 -22.3631 
10263 2 -13.2304 -22.7982 
9578 1 -13.7527 -24.825 
14946 1 -10.7294 -24.8753 
9972 2 -11.5165 -22.4508 
10313 1 -11.27 -19.3954 
9167 2 -5.62522 -23.2602 
9579 3 -9.25614 -26.2482 
10359 1 -8.33284 -22.7078 
14915 3 -5.33375 -21.3475 
9871 2 -4.59002 -21.968 
496 1 -41.4776 -34.4644 
14511 1 -5.05049 -27.0828 
4216 2 -39.7194 43.3524 
11176 2 -2.65617 -4.20754 
1145 1 -42.1687 -16.4536 
809 1 -39.3831 -16.6381 
1908 2 -34.2583 -17.9174 
5794 2 -38.8067 -22.2452 
456 2 -39.3144 -17.0077 
5665 2 -38.0802 -19.7109 
797 1 -34.6276 -18.2354 
1507 2 -38.4231 -14.3245 
5424 2 -33.1099 -15.9999 
395 2 -32.2973 -15.9589 
1866 2 -31.5709 -18.9983 
6115 3 -25.6762 -18.1315 
6162 2 -28.3232 -18.9372 
5386 2 -24.3353 -19.5745 
1137 1 -30.4954 -17.242 
5781 1 -28.1961 -21.7227 
5377 2 -23.37 -20.7477 
5784 1 -23.0794 -18.3175 
6545 1 -21.6621 -21.335 
5436 2 -23.262 -17.2093 
10339 1 -16.1714 -20.0426 
10317 2 -19.1596 -20.6635 
10706 1 -19.9105 -18.5575 
5835 1 -21.5323 -19.9399 
10267 1 -15.9734 -20.8639 
10343 2 -16.8536 -18.1321 
9971 1 -12.5157 -16.1642 
9970 2 -16.9909 -18.7076 
10361 2 -13.8751 -20.834 
9969 1 -13.8244 -15.495 
14547 1 -9.21518 -20.4967 
10401 1 -7.53823 -20.638 
9991 1 -12.8652 -20.5927 
9930 2 -6.34576 -18.7449 
10284 1 -7.2417 -20.7537 
15341 2 -3.91202 -15.6375 
5395 3 -6.90171 -19.0111 
6532 1 -25.8481 -1.959 
11768 3 -2.57774 -6.60149 
14904 2 -2.50289 -17.6908 
9537 2 -3.20033 -22.6876 
14867 1 -4.21261 -18.4244 
19475 2 -2.10979 -14.9437 
5739 2 -40.12 -11.7264 
28201 1 45.0182 -11.98 
793 3 -37.0029 -16.3544 
6138 3 -36.6745 -16.9027 
1501 1 -33.6768 -17.2469 
1505 3 -35.7857 -13.9019 
1593 1 -34.7704 -14.4812 
1568 2 -30.6087 -15.8386 
28615 1 53.7508 -14.8709 
29038 2 52.041 -9.14991 
5390 1 -30.2625 -13.1932 
6196 2 -26.3955 -16.5409 
5403 3 -25.9648 -15.1463 
6558 2 -28.3589 -13.9944 
6185 2 -22.5926 -14.4829 
10740 3 -24.9179 -10.5853 
1876 1 -23.929 -15.2823 
1923 3 -24.5546 -12.8266 
11111 2 -21.0312 -16.6699 
6182 1 -25.3776 -14.5096 
5786 2 -23.2801 -15.3144 
5758 1 -20.299 -15.2596 
9943 1 -18.6071 -17.8854 
10735 2 -19.4912 -12.166 
5769 1 -23.2839 -13.8328 
19883 2 -14.7695 -18.7952 
10743 1 -16.9906 -16.3063 
14868 2 -15.2374 -16.6273 
5774 1 -13.6773 -14.3639 
9953 1 -16.9681 -13.5151 
15624 2 -9.1253 -13.7824 
10716 1 -10.4816 -14.5288 
10392 1 -9.2337 -16.3838 
6628 2 -10.5587 -13.4186 
9981 2 -3.81313 -15.0547 
14892 1 -6.9892 -10.8099 
10315 1 -6.81523 -17.0891 
14885 1 -6.69597 -16.7933 
15275 2 -2.93912 -12.8163 
14952 1 -9.43115 -18.2622 
15239 1 -4.86921 -15.9391 
14522 2 -5.67305 -13.0831 
10435 1 -4.80637 -11.494 
1885 2 -28.3598 -24.6458 
10671 2 -1.73223 -10.9586 
1217 1 -41.6077 -6.34795 
1573 1 -40.9082 -8.72444 
1842 2 -37.8685 -7.37821 
1519 1 -38.5018 -9.91261 
1554 1 -37.7805 -4.54633 
1157 1 -35.4912 -7.57102 
1937 1 -34.7108 -11.0739 
2289 2 -32.6952 -7.55645 
6487 2 -30.4844 -11.0351 
1200 2 -32.6832 -9.5787 
1528 2 -31.2286 -7.21688 
6520 2 -25.1693 -10.8089 
11157 2 -28.0952 -10.9018 
6536 2 -27.7008 -13.7164 
1900 2 -26.4577 -6.7993 
9973 1 -22.4972 -10.3472 
6580 1 -25.2445 -6.23415 
6467 1 -23.9566 -8.55173 
6139 1 -26.4478 -12.3185 
6886 2 -21.8272 -9.31132 
9956 1 -17.0578 -10.904 
10316 2 -23.8368 -11.6121 
6540 1 -21.1738 -8.28989 
10358 1 -18.4888 -9.82508 
15301 1 -15.0638 -13.9818 
11114 1 -12.0506 -12.813 
6484 2 -14.2975 -11.4573 
6577 3 -15.834 -8.93754 
14918 1 -9.09584 -10.5024 
10407 1 -12.9985 -13.0702 
14910 2 -14.9349 -8.27198 
10398 1 -12.8444 -9.58268 
19860 1 -10.5943 -6.30517 
10369 3 -10.6121 -8.28197 
10652 2 -4.57686 -8.78235 
10367 1 -7.88861 -7.61149 
19905 2 -4.67398 -15.3158 
15286 2 -9.26506 -7.81681 
14556 2 -4.73892 -10.5624 
6493 1 -20.9474 -11.3694 
15991 2 -14.0789 -16.8541 
1161 2 -37.6886 -1.91054 
11783 1 -18.9669 -0.413027 
6502 1 -38.1091 -4.31533 
4631 1 -39.4574 -40.4051 
28966 2 46.0462 -6.72757 
5785 2 -34.0358 -6.08529 
2261 2 -39.6736 -1.06164 
6512 2 -38.9418 -2.33441 
10756 1 -33.6879 -4.93214 
6506 2 -30.4436 -5.74821 
1893 1 -35.3478 -11.5314 
6473 3 -35.9568 -7.16084 
6876 1 -30.5422 -5.84541 
28981 2 56.4717 -7.82851 
1920 2 -26.9281 -7.24541 
6206 2 -28.6553 -7.13935 
6184 1 -30.2852 -3.9489 
2706 2 -22.6179 -4.25539 
6113 2 -24.7819 -5.89017 
10752 2 -25.8229 -3.89143 
11084 1 -22.6757 -7.37003 
2642 1 -28.0723 -2.13612 
7262 2 -24.7884 -8.4435 
10681 1 -19.7191 -9.5827 
6167 1 -18.7615 -3.82758 
6931 2 -20.8627 -5.38226 
6135 1 -15.9334 -5.11523 
15276 2 -14.5316 -4.62692 
11119 2 -13.6503 -4.10811 
16013 1 -13.6998 -7.35683 
6496 1 -20.931 -5.54323 
5745 3 -16.0543 -6.38545 
20259 3 -13.2832 -6.72378 
15330 1 -12.9955 -6.45485 
6524 2 -10.7002 -6.34225 
15263 1 -4.13415 -6.07758 
11063 2 -10.0669 -5.97613 
15307 1 -1.26105 -8.6014 
14902 3 -7.03772 -6.64836 
11448 2 -5.47987 -6.11306 
20276 1 -3.40774 -3.99821 
10726 1 -0.744328 -5.48224 
17875 2 -9.15317 42.8602 
16017 2 -1.4324 -6.11851 
15337 2 -1.98659 -4.75644 
14118 1 -0.943927 -33.8277 
14263 2 -2.53554 -31.4719 
4964 1 -19.4635 -35.1388 
1898 2 -42.4771 -3.41047 
1594 2 -26.6688 -0.160748 
6908 2 -35.292 -3.60927 
6898 3 -32.6751 -2.84517 
27808 1 43.3839 -30.8061 
1910 2 -40.3533 -4.19958 
16397 2 -7.83098 -0.312304 
10711 2 -19.6426 -4.44861 
15941 2 -1.96936 -4.04632 
31300 2 43.1759 47.2415 
6504 1 -35.3988 -1.84462 
6912 2 -35.1839 -1.32852 
9237 1 -15.3562 -41.2974 
8796 2 -25.7138 44.3365 
11112 2 -28.5455 -3.36509 
22882 2 43.6788 -38.4324 
10784 2 -5.43289 -7.04502 
6899 1 -31.5919 -3.01633 
29351 1 43.1301 -6.86039 
11091 2 -27.5014 -4.49254 
15303 2 -3.71687 -9.36175 
6903 2 -25.9187 -3.00143 
13332 2 -7.95721 50.7559 
5779 1 -32.4683 -0.168384 
11162 1 -15.7173 -2.25921 
16057 2 -21.0024 -2.70659 
16026 1 -21.025 -2.74973 
10730 1 -13.5181 -1.47362 
11130 1 -17.2787 -4.7831 
14597 2 -0.176288 -19.6192 
4681 1 -29.9425 -40.5415 
11113 2 -10.9691 -3.42233 
10338 1 -11.6846 -3.42951 
6499 2 -23.9052 -16.2795 
15305 1 -5.90559 -3.13926 
15655 3 -6.52233 -2.49046 
11475 2 -8.31783 -4.60409 
11129 1 -6.51043 -3.84463 
15674 1 -9.16493 -3.38128 
15255 2 -18.6674 -16.0382 
14913 2 -3.0654 -4.55583 
391 1 -42.9596 -33.2614 
15625 1 -3.412 -0.382341 
761 2 -41.1222 -41.3221 
154 1 -41.7581 -39.0987 
815 2 -42.19 -28.3632 
373 2 -39.7925 -42.2333 
57 1 -27.8267 -41.1878 
13806 1 0.0684505 -37.9227 
1195 1 -37.7659 -38.8468 
378 1 -36.0563 -37.3597 
24 2 -33.8681 -43.0048 
35 1 -33.4648 -35.9251 
9596 1 -30.5712 -37.0722 
529 2 -32.4844 -42.2308 
9162 1 -25.3479 -39.354 
1262 1 -27.111 -2.48659 
421 2 -22.8461 -39.5193 
9626 2 -25.9363 -40.1727 
9554 2 -23.4504 -37.7974 
9564 2 -23.836 -39.1981 
9164 1 -23.9001 -41.674 
9559 1 -21.0338 -38.3663 
5735 3 -22.2055 -37.4697 
27909 2 43.8247 -29.8151 
9221 1 -19.7794 -40.6722 
9234 2 -19.4575 -40.2479 
13418 1 -16.2611 48.7164 
5093 2 -16.6551 -42.2178 
22173 2 -15.4237 43.6371 
8817 2 -9.80914 46.9846 
13336 2 -16.876 46.0729 
9942 1 -18.4537 -39.3353 
13372 1 -14.6221 45.3735 
12958 2 -13.076 46.5154 
9904 2 -16.4682 -39.7739 
13374 1 -10.5476 45.1085 
9572 2 -7.59341 -40.0252 
18391 2 -11.3578 -40.286 
13829 1 -12.4713 -37.6707 
11102 1 -16.3696 -14.5313 
14091 2 -1.55069 -40.8883 
9630 1 -8.74095 -42.9675 
1830 2 -26.4259 -20.2968 
400 2 -32.5227 -34.6556 
28711 1 48.5825 -22.6295 
6110 1 -28.132 -22.0399 
31712 2 43.1915 46.1845 
5017 2 -35.0313 -37.3017 
27452 1 45.45 -39.2941 
27530 2 43.4685 -40.7646 
9672 3 -20.5198 -34.4368 
5822 2 -40.8486 -36.4103 
27790 1 45.6459 -38.6853 
4586 2 -35.637 -37.4879 
37 2 -28.2128 -35.3524 
27864 1 50.9467 -34.5991 
11 1 -33.1164 -37.5835 
4994 1 -26.9647 -33.4961 
5752 1 -26.5911 -33.2159 
5041 1 -28.6288 -35.3634 
4989 2 -29.8356 -33.3927 
9965 2 -25.0988 -38.6038 
5431 1 -23.7058 -34.2647 
4651 2 -22.0412 -33.1653 
5422 1 -18.7714 -37.6751 
5013 2 -21.5268 -35.9334 
17610 3 -19.0789 48.8062 
9196 2 -9.90619 -36.077 
13385 2 -15.0008 47.9509 
4646 1 -16.7698 -33.3592 
9609 2 -14.2915 -35.6887 
13763 1 -7.43843 -37.9968 
9549 1 -11.3425 -32.1837 
5019 1 -7.42 -35.7339 
9207 1 -9.74165 -34.9443 
13747 1 -6.05601 -34.1861 
9250 2 -9.16886 -33.7709 
13756 2 -5.23871 -40.5034 
9663 1 -4.85988 -37.1554 
13805 1 -2.74316 -40.164 
14132 2 -5.55784 -38.5121 
13827 3 -0.537562 -39.3347 
15319 2 -3.99059 -1.37444 
14179 1 -1.94859 -35.796 
13722 1 -0.770168 -36.9094 
28276 1 43.0242 -18.7254 
27834 1 45.5039 -33.3039 
67 2 -41.7105 -35.1865 
903 1 -41.47 -22.8772 
426 1 -40.0645 -31.7764 
498 1 -30.3792 -38.8693 
813 1 -37.3353 -33.3031 
27424 2 46.0634 -36.6809 
435 1 -35.8364 -31.3019 
445 1 -36.4938 -35.9043 
5741 2 -31.4728 -28.6516 
4647 3 -32.4327 -34.0723 
5423 1 -30.3666 -31.0237 
5034 1 -29.6346 -30.6711 
5391 1 -24.2474 -31.1737 
4963 1 -27.5991 -31.3191 
4620 2 -28.2925 -31.5692 
5064 2 -26.9215 -29.9601 
774 1 -28.7222 -28.4509 
5398 1 -24.4664 -32.2166 
5766 2 -26.7558 -29.829 
13350 2 -22.8139 58.4504 
9960 2 -22.0172 -31.6951 
4995 3 -23.6204 -29.1719 
5012 1 -18.6384 -32.5457 
9605 1 -19.6127 -31.6115 
9177 3 -16.4594 -30.6367 
5351 2 -21.3224 -29.9122 
9235 2 -14.4018 -28.4615 
9193 1 -15.5243 -33.7625 
9539 1 -13.5965 -33.0246 
9563 2 -14.2621 -31.639 
9217 1 -10.3579 -32.0631 
9958 1 -6.81031 -31.9619 
14126 1 -9.16913 -31.2984 
14150 1 -4.47539 -33.6914 
2201 2 -36.1139 -9.26076 
14187 1 -1.35825 -26.3167 
13781 3 -1.53481 -30.1144 
9574 1 -5.50171 -31.0511 
13450 2 -0.731396 56.376 
416 1 -38.7957 -28.8098 
4298 2 -41.6868 57.7509 
10249 3 -4.92175 -24.2813 
28224 1 43.4986 -24.4755 
2401 1 -22.1044 -1.48982 
728 1 -33.1983 -25.8848 
808 3 -36.9499 -23.5253 
90 1 -35.5158 -29.5304 
375 1 -38.2616 -28.8708 
4534 2 -30.8198 61.6569 
772 1 -36.9775 -27.2845 
737 2 -34.0774 -28.7228 
1175 1 -32.7307 -28.296 
799 1 -35.5965 -26.5894 
5757 2 -34.5111 -27.274 
4996 1 -30.7602 -26.1465 
386 2 -28.2132 -26.7345 
5068 2 -27.2216 -26.2309 
762 1 -25.5719 -28.0171 
43 2 -25.8045 -24.4396 
5727 2 -21.7863 -25.1887 
5378 1 -24.9552 -28.5626 
9966 3 -23.3003 -24.0088 
5777 2 -24.7486 -25.9381 
9215 2 -21.9803 -26.5535 
5400 1 -22.4567 -26.6518 
9233 1 -19.9304 -28.2637 
9584 2 -21.4974 -29.8424 
4671 1 -13.4667 -27.3813 
10346 2 -15.911 -31.0827 
10013 1 -16.2626 -27.9606 
9954 2 -14.553 -26.1159 
14827 1 -9.06916 -28.0049 
14519 1 -12.36 -30.3094 
9536 1 -12.7378 -28.8789 
9228 2 -13.9909 -24.1203 
9998 3 -12.2276 -25.7405 
14193 2 -5.22252 -29.4942 
14124 2 -8.38651 -25.2884 
14131 2 -8.9285 -31.8754 
14213 1 -8.08942 -26.4652 
9204 3 -8.13408 -29.2511 
14205 1 -1.21477 -25.1467 
14138 2 -2.00816 -32.1543 
9565 1 -5.17581 -26.0422 
14883 2 -3.66575 -28.5665 
9934 2 -5.63743 -23.6528 
15654 1 -3.45002 -1.16278 
14165 2 -0.816733 -27.7367 
436 2 -39.0179 -21.6911 
28247 1 47.1963 -19.268 
407 1 -40.338 -22.5198 
6147 2 -34.1061 -22.811 
791 1 -39.6817 -23.8993 
5772 2 -35.7597 -20.2679 
5759 1 -36.7358 -17.9436 
816 1 -33.0782 -20.9834 
5795 2 -32.9772 -23.5852 
434 1 -33.2313 -19.1469 
444 2 -35.0257 -24.4384 
440 1 -36.292 -23.7074 
5738 1 -28.1408 -24.0947 
415 1 -29.759 -21.4344 
5383 2 -25.5921 -22.7059 
1541 2 -24.0381 -25.1233 
1193 2 -25.2835 -23.2189 
5445 2 -24.1031 -21.7119 
10366 1 -23.5693 -23.5609 
82 2 -26.562 -24.4979 
6144 1 -21.1508 -20.8093 
5867 2 -23.5886 -18.3802 
10328 3 -20.4131 -23.4646 
6205 2 -20.5735 -25.448 
9997 1 -18.5031 -23.051 
5421 1 -16.1136 -25.1239 
5818 1 -20.2046 -27.5401 
9599 2 -13.3504 -20.4678 
5456 2 -17.3243 -23.3122 
5860 1 -13.5714 -18.0752 
9621 2 -14.9139 -23.6587 
10307 2 -16.4266 -27.6796 
9986 1 -11.4623 -25.0553 
14552 2 -10.6346 -22.2623 
10027 2 -11.063 -22.2505 
10272 1 -2.70374 -20.7247 
9544 3 -5.33612 -24.8058 
10291 1 -7.50965 -23.2197 
14484 1 -8.86017 -24.2466 
9951 1 -4.58308 -21.1901 
14181 2 -3.68179 -23.7208 
5453 2 -3.6891 -23.5623 
14530 3 -0.572346 -22.6793 
1147 2 -37.6565 -22.062 
796 1 -40.9997 -15.7894 
1165 1 -41.1963 -19.8408 
1563 2 -39.2801 -17.8392 
6654 1 -26.4713 -9.18001 
1918 2 -41.9011 -18.7209 
6585 2 -36.1385 -19.333 
804 1 -39.7336 -16.8464 
1142 2 -34.0761 -16.9882 
6129 2 -31.2296 -19.9135 
1155 2 -29.5355 -20.0041 
781 1 -31.2522 -18.6811 
6529 2 -25.807 -21.7895 
5801 1 -27.5444 -15.9432 
1231 2 -28.851 -19.2304 
5742 2 -28.174 -13.5562 
780 1 -27.4096 -20.9804 
5778 1 -23.7973 -19.7168 
5410 1 -25.7379 -16.4845 
5810 2 -25.4032 -17.4795 
5416 1 -18.5429 -20.879 
5773 2 -18.1363 -18.8591 
5747 2 -20.9303 -18.348 
15277 2 -15.526 -16.3127 
6225 2 -15.8191 -18.3653 
5389 3 -20.892 -17.3385 
10732 1 -16.8547 -22.7508 
6148 2 -15.6285 -21.0152 
10402 2 -13.2178 -22.8546 
9931 2 -11.5003 -16.2477 
10388 1 -13.0907 -17.1633 
10745 2 -11.1378 -15.4606 
5866 2 -11.5354 -20.1132 
10004 2 -10.9336 -17.2232 
14575 1 -5.16629 -20.987 
14541 2 -7.10874 -19.5165 
10721 1 -8.41766 -21.4746 
5816 1 -9.68825 -17.337 
15306 2 -8.15354 -16.0067 