LAMMPS (12 Dec 2018)
# CuZr simulation

clear

boundary        p p p
units           metal
atom_style      atomic

read_data       Ag7.in.dat
  orthogonal box = (-42.4782 -42.4782 -42.4782) to (42.4782 42.4782 42.4782)
  2 by 4 by 4 MPI processor grid
  reading atoms ...
  32000 atoms
mass            1  91.22
mass            2  63.55
mass            3  107.87

variable i equal 50000

pair_style      eam/alloy
pair_coeff      * * ZrCuAg.lammps.eam Zr Cu Ag

timestep       0.001

thermo_style    custom step temp ke pe etotal enthalpy press vol pxx pyy pzz pyz pxz pxy
thermo          100

fix             1 all npt temp 300 1700 0.2 iso 0.0 0.0 0.2
run     7000
Neighbor list info ...
  update every 1 steps, delay 10 steps, check yes
  max neighbors/atom: 2000, page size: 100000
  master list distance cutoff = 8.5
  ghost atom cutoff = 8.5
  binsize = 4.25, bins = 20 20 20
  1 neighbor lists, perpetual/occasional/extra = 1 0 0
  (1) pair eam/alloy, perpetual
      attributes: half, newton on
      pair build: half/bin/atomonly/newton
      stencil: half/bin/3d/newton
      bin: standard
Per MPI rank memory allocation (min/avg/max) = 3.12 | 3.125 | 3.127 Mbytes
Step Temp KinEng PotEng TotEng Enthalpy Press Volume Pxx Pyy Pzz Pyz Pxz Pxy 
       0            0            0   -133972.23   -133972.23    -120564.7    35032.384    613181.97    34313.407    34750.852    36032.893   -74.746024    101.24986   -548.02174 
     100    1648.5384    6818.6768   -141913.88   -135095.21   -135047.32    125.61077    610770.68   -155.13779   -48.266287    580.23639   -614.67821    458.92537   -251.20786 
     200    1565.1532    6473.7793    -143076.6   -136602.82   -136656.98   -142.62284    608419.77    297.25096    -144.1142   -581.00527    -404.0875    505.49233     157.4153 
     300    1432.3752    5924.5837   -144008.38    -138083.8   -138155.21   -189.54084     603622.6    104.76934     42.68273    -716.0746    406.63114    363.06117     149.4956 
     400    1316.9583    5447.1969   -144886.63   -139439.44   -139488.81   -132.07099    599031.72     232.8821    -473.3012   -155.79388   -51.565552    374.89441   -200.55554 
     500     1203.127    4976.3682   -145632.81   -140656.44   -140685.24   -77.530492    595229.97    155.93078   -330.60028   -57.921983    308.70041    158.35126   -304.15708 
     600    1113.5841    4606.0013   -146334.18   -141728.18   -141733.74   -15.059313    591603.37   -24.450188    90.287916   -111.01567   -133.78866   -441.53747    36.266301 
     700    1030.0539    4260.5042   -146932.18   -142671.68   -142670.71    2.6234676     588581.2    242.93526   -174.87484   -60.190018    164.85617   -116.16872    110.45685 
     800    960.73964    3973.8069   -147478.07   -143504.26   -143481.08    63.388987    585937.42    308.32886   -7.7753669   -110.38653    94.615071   -142.06126     417.8256 
     900     893.6286    3696.2225   -147925.01   -144228.79   -144133.65     261.2038    583555.82   -129.58359    610.98504    302.20994    233.81405   -105.49634    246.45508 
    1000    839.98949    3474.3606   -148333.14   -144858.78    -144610.2    684.96922    581438.55    358.70374    1137.0052    559.19872    371.78487   -7.3470688    285.18961 
    1100    795.21525    3289.1657   -148697.16   -145407.99   -144870.26    1486.8326    579453.23    1166.1623    1494.9502    1799.3855    374.34184   -157.79486    131.34358 
    1200    752.85682    3113.9629   -149003.06    -145889.1   -145477.85    1139.7008    578124.95    838.50293    1657.9721    922.62728    436.54096   -313.00166    44.591465 
    1300    715.96419    2961.3678    -149264.8   -146303.43   -146139.66    454.48882    577353.02      168.031    985.98479    209.45068    417.33903   -60.925418    -148.2634 
    1400    681.50842     2818.852    -149475.7   -146656.85   -146544.79    311.50552    576379.57    163.18261    825.01253    -53.67858    608.48403   -312.89792    147.22855 
    1500    658.33191    2722.9894   -149677.48   -146954.49   -146845.72    302.84653    575455.13    122.95937    504.80886    280.77137    527.13547   -155.80745    367.88003 
    1600    642.17559    2656.1637   -149854.93   -147198.77   -147051.11    411.68963    574669.41    385.40488    413.08585    436.57817    248.95635     194.2144    -349.0058 
    1700    625.49609     2587.174   -149974.02   -147386.84   -147239.62    410.85259    574114.21    110.81152    796.19429    325.55197   -228.41302    45.251525    -128.2976 
    1800    620.28422    2565.6167   -150070.07   -147504.45   -147489.64    41.349517    573995.97   -2.5537373    358.01593   -231.41364   -274.66234    217.28549    249.06397 
    1900    624.30764    2582.2584   -150121.12   -147538.86   -147552.14   -37.091042     573735.3   -22.177821    194.39739   -283.49269   -284.66614    48.306186   -155.47537 
    2000    638.70663    2641.8154   -150109.69   -147467.87   -147516.37   -135.38844    573953.05   -337.28446   -22.154535    -46.72633     192.7806   -304.08609   -185.86356 
    2100    662.92417    2741.9839   -150041.44   -147299.46   -147448.36   -415.19859    574580.73   -344.69043   -99.900214   -801.00514    38.299932     22.41992   -184.56418 
    2200    685.18558    2834.0614   -149919.08   -147085.01   -147550.91   -1296.2941    575827.22   -1352.1364   -1256.2889    -1280.457    168.95538   -16.792805   -44.707737 
    2300    717.31137      2966.94   -149824.12   -146857.18   -147205.66   -969.24216    576044.48   -1018.1828   -1253.7227   -635.82098   -172.98797   -38.368862   -58.046613 
    2400    743.54002    3075.4268   -149704.88   -146629.45   -146820.43   -530.67073    576597.39   -670.66289   -668.91645   -252.43284   -190.12737     353.8665   -176.88162 
    2500    769.88608    3184.3993   -149590.39      -146406   -146596.74   -529.29743    577374.65   -993.86385   -121.30802   -472.72044    62.355409    160.52626   -63.511181 
    2600    795.04979    3288.4813   -149477.69   -146189.21   -146521.99   -922.31954    578076.76   -972.48679   -626.14964   -1168.3222     86.62556    100.57194    25.490406 
    2700    821.06343    3396.0788   -149376.09   -145980.01   -146604.26   -1726.6962    579233.61   -1733.4615   -1579.5855   -1867.0418    267.46028   -425.71072    387.86348 
    2800    847.63502     3505.984    -149287.1   -145781.11    -146172.9   -1083.5335    579324.26   -903.32268   -1041.6086   -1305.6692     140.2779   -342.56273    332.64933 
    2900    866.78014     3585.172   -149175.87    -145590.7    -145758.8   -464.59371    579716.28   -667.47081   -128.68343   -597.62687    162.53159   -320.00512    417.29023 
    3000    885.14139    3661.1177   -149063.45   -145402.33   -145518.27   -320.21451    580099.91   -320.17434   -81.999096   -558.47009    340.15207   -135.88771    476.91753 
    3100    907.74979    3754.6305   -148969.69   -145215.06    -145360.6   -401.47134    580809.81   -803.90154    -26.71105   -373.80142    30.963881   -209.39408    371.39179 
    3200    930.49467    3848.7078   -148878.98   -145030.27   -145074.21    -121.1861    580951.36   -310.29052    348.40204   -401.66981    420.99433    22.977827    357.63977 
    3300    946.14727      3913.45    -148761.9   -144848.45   -144785.73    172.76108    581674.64    305.03955   -78.095495    291.33919   -4.1474368    15.206076    551.32554 
    3400    971.86224    4019.8121    -148684.4   -144664.59   -144589.81    205.89796    581907.35    616.49209   -58.782543    59.984324    508.14642    307.31525   -106.55073 
    3500    986.01696    4078.3588   -148558.59   -144480.23   -144283.48    541.29901    582339.62    695.61995    893.20869    35.068396   -59.999777   -251.48256    508.02234 
    3600    1011.4137    4183.4046   -148477.33   -144293.92   -143641.41    1795.4147    582284.76    1584.8257    2344.2496    1457.1687    134.59069    -70.70133    478.17692 
    3700    1024.8005     4238.775   -148348.44   -144109.66   -143667.91    1213.4503    583270.96    1385.1953    729.44339    1525.7122   -509.07059   -35.876308    -122.7156 
    3800    1049.1545    4339.5078    -148258.5   -143918.99   -143719.32      547.799    583973.92    877.49052    629.19098     136.7155   -141.16292    120.51755    53.284799 
    3900     1069.188    4422.3705   -148149.62   -143727.24   -143519.86    568.25089    584716.37    238.63024    451.13355    1014.9889   -246.77968    157.77068     2.033168 
    4000    1088.6856    4503.0163   -148040.49   -143537.48   -143099.07    1200.8673    584914.16    676.89498    889.45755    2036.2494   -62.972177   -798.86364    437.50847 
    4100    1103.1041    4562.6541   -147908.73   -143346.08   -143176.72    463.04244    586006.99    730.34302   -94.664961    753.44924    77.259069   -311.87809    107.17716 
    4200     1127.713    4664.4413   -147809.87   -143145.43   -143136.22    25.136968    586761.57    329.78534   -138.68217   -115.69227    34.129698   -85.645519     476.3688 
    4300    1145.6248    4738.5282   -147674.11   -142935.58    -143104.6   -460.67032    587836.44   -521.76428    -452.0317   -408.21498   -151.04561   -52.010324    168.24853 
    4400    1164.5517    4816.8135   -147538.35   -142721.53   -143261.17   -1468.0256    588951.49   -550.01067   -1763.0101    -2091.056   -474.48334   -86.860304    472.68696 
    4500    1190.3856    4923.6675   -147429.54   -142505.87   -142943.51   -1189.2532    589592.01   -1084.0662   -1238.2144    -1245.479   -64.418661    113.49936   -10.483955 
    4600     1202.891    4975.3924   -147266.34   -142290.95   -142555.92   -719.53967    590002.54   -800.07549   -661.76985   -696.77367    -98.59876   -70.167347    220.08178 
    4700    1228.5825    5081.6573   -147154.85    -142073.2   -142492.28   -1136.2775    590922.21   -1036.4518   -1044.3295   -1328.0511   -352.76276   -398.34321   -107.51989 
    4800    1259.4392    5209.2865   -147062.67   -141853.38   -142503.87     -1761.22    591747.35   -1913.1281   -1874.0146   -1496.5173   -103.70207   -271.40834    307.90118 
    4900     1268.415    5246.4124   -146882.68   -141636.27   -141932.66    -802.0464    592066.76    -1345.105   -927.44529   -133.58891   -467.98013   -33.417826    44.703307 
    5000    1283.5239    5308.9057   -146719.63   -141410.72   -141538.71   -345.92553    592778.62   -566.55998   -519.24434    48.027709   -148.19244   -157.56859    164.98945 
    5100    1305.8664    5401.3185   -146578.94   -141177.63   -141259.06   -219.90305    593299.33   -40.488091   -175.14174   -444.07933   -25.048454   -305.43348    76.879814 
    5200    1320.4891    5461.8009    -146405.8      -140944   -140804.46    376.46206       593852    240.77112    683.65555     204.9595     302.9198    43.587934   -424.14023 
    5300    1350.1085    5584.3125   -146286.09   -140701.77   -140520.66    488.12509    594471.14    872.44116    451.63632    140.29779    209.92405   -273.50702    86.549094 
    5400    1368.2188    5659.2203   -146121.75   -140462.53   -140124.94    908.78115    595162.31     1165.385     704.8313    856.12712   -394.18619   -408.61777   -95.230801 
    5500    1390.7929    5752.5913   -145980.51   -140227.92   -139478.44    2017.6133    595155.74    2296.5145    1635.5181    2120.8072    430.31459   -367.85231    405.31014 
    5600    1419.4622    5871.1731   -145869.65   -139998.48   -139615.57     1029.274    596046.27    721.81074    1107.8979    1258.1132    240.61607   -466.28193    25.595541 
    5700    1444.8483    5976.1749   -145752.83   -139776.66   -139679.82     259.7602    597278.87    623.38852    48.790164    107.10192   -136.25617   -212.71708    270.11393 
    5800    1453.1713    6010.6006   -145577.02   -139566.42   -139564.77    4.4314386    598365.26   -33.532774    427.62018   -380.79309    407.84353    420.09777    213.64964 
    5900    1465.8935    6063.2218   -145418.03   -139354.81   -139647.45   -781.85162    599666.03   -1169.0698   -887.15807   -289.32697   -192.48794   -47.066849     21.07261 
    6000    1486.3166     6147.696   -145282.44   -139134.75   -139361.44   -604.97812    600347.07   -361.08226   -1051.0607   -402.79142    317.30872    513.40969   -162.71848 
    6100    1508.7188    6240.3557   -145145.38   -138905.02   -139346.09   -1175.0994    601372.85   -1059.3754   -1569.2435   -896.67936     3.535498    34.820726    117.82398 
    6200    1526.1896    6312.6183   -144984.69   -138672.07    -139412.8   -1968.8592    602778.57   -1666.9901   -2242.6805    -1996.907   -158.42569    462.98093   -444.59791 
    6300    1556.5152     6438.051   -144879.14   -138441.09   -138752.28   -827.01465    602885.98   -855.02171   -424.42946   -1201.5928     -269.732    238.72615   -27.893333 
    6400    1574.5763    6512.7552   -144726.25   -138213.49   -138327.82    -303.5679    603400.11   -625.01611   -126.82176   -158.86582   -418.21006     29.83212   -357.26343 
    6500    1595.2899    6598.4308   -144586.83    -137988.4   -137812.99    465.79592    603358.04   -229.22819    457.22978    1169.3862   -30.809819   -391.40773    376.48726 
    6600    1609.5509    6657.4168   -144422.29   -137764.87   -137355.41     1085.942    604103.23    600.32301    1134.7786    1522.7242    155.26796   -139.67837   -3.4399621 
    6700    1641.7968    6790.7924   -144326.45   -137535.66    -137238.4    787.55014    604738.41    1432.5617     15.65671    914.43201    60.304112   -150.95369    228.46277 
    6800    1656.5304    6851.7333   -144164.85   -137313.12   -136881.91    1141.1101    605443.46    1220.0915     1128.704    1074.5348    682.86855    -488.5862   -27.062786 
    6900    1676.3772    6933.8237   -144028.05   -137094.23   -136602.65    1299.7328    605968.71    1361.7853    1013.4784    1523.9347    117.39291    192.76562   -52.313274 
    7000    1690.1938     6990.972   -143862.47    -136871.5   -136853.73    46.831098    607726.29   -396.16454    348.95102    187.70682    91.501192   -112.18624    486.75322 
Loop time of 59.4867 on 32 procs for 7000 steps with 32000 atoms

Performance: 10.167 ns/day, 2.361 hours/ns, 117.673 timesteps/s
99.9% CPU use with 32 MPI tasks x no OpenMP threads

MPI task timing breakdown:
Section |  min time  |  avg time  |  max time  |%varavg| %total
---------------------------------------------------------------
Pair    | 47.898     | 49.094     | 51.999     |  13.0 | 82.53
Neigh   | 0.64099    | 0.67841    | 0.75894    |   3.9 |  1.14
Comm    | 4.9297     | 7.8178     | 8.9696     |  32.0 | 13.14
Output  | 0.011269   | 0.011549   | 0.011837   |   0.2 |  0.02
Modify  | 1.3984     | 1.571      | 1.718      |   6.8 |  2.64
Other   |            | 0.3138     |            |       |  0.53

Nlocal:    1000 ave 1024 max 982 min
Histogram: 4 1 3 6 6 5 4 1 1 1
Nghost:    3550.84 ave 3587 max 3519 min
Histogram: 2 1 6 5 4 6 2 4 0 2
Neighs:    67664.6 ave 70712 max 65628 min
Histogram: 2 2 8 4 8 3 2 2 0 1

Total # of neighbors = 2165267
Ave neighs/atom = 67.6646
Neighbor list builds = 120
Dangerous builds = 1
unfix 1

fix             1 all npt temp 1700 1700 0.2 iso 0.0 0.0 0.2
run     7000
Per MPI rank memory allocation (min/avg/max) = 3.124 | 3.126 | 3.128 Mbytes
Step Temp KinEng PotEng TotEng Enthalpy Press Volume Pxx Pyy Pzz Pyz Pxz Pxy 
    7000    1690.1938     6990.972   -143862.47    -136871.5   -136853.73    46.831098    607726.29   -396.16454    348.95102    187.70682    91.501192   -112.18624    486.75322 
    7100    1691.1309    6994.8476   -143848.29   -136853.45   -136560.33     773.3989    607229.02     613.5134    165.32897    1541.3543    353.26706   -6.8876481    231.46708 
    7200    1686.8471    6977.1293   -143787.11   -136809.98   -136949.76    -368.2057     608222.3   -578.83069   -639.37539    113.58899   -18.054085    492.64369    470.24904 
    7300    1675.5431    6930.3737   -143701.32   -136770.94    -137430.6   -1734.9208    609181.27   -1243.0028   -2924.4262   -1037.3336    187.01056   -301.26726    793.96269 
    7400    1699.0721     7027.694   -143764.88   -136737.19   -136990.16   -666.26949     608325.6   -167.26475   -1207.0212   -624.52251    446.49973   -3.9516694    392.10174 
    7500     1699.073     7027.698   -143738.01   -136710.31   -135972.92    1945.8119    607165.25    2744.7395    840.45991    2252.2363    50.188567    143.47494     115.8552 
    7600      1691.24    6995.2992   -143673.28   -136677.98   -136450.23    599.96448    608216.21    390.24988    288.08809    1121.5555   -443.06301   -329.57749   -555.60671 
    7700    1696.1593    7015.6462   -143656.33   -136640.69   -136930.16   -761.33396    609174.19   -579.57998   -952.00072   -752.42117   -16.756963    531.44481   -105.38535 
    7800    1701.3491    7037.1123   -143653.27   -136616.16    -137007.3   -1028.8482    609104.14    -491.7798   -675.47837   -1919.2866   -9.2763498   -342.02617    631.56404 
    7900    1691.6599    6997.0361   -143597.79   -136600.75    -136343.2    678.33454    608315.85    822.77455    432.54034    779.68871    376.21412    117.83649   -79.713381 
    8000     1705.438    7054.0248   -143636.86   -136582.83   -136088.05    1304.4566    607710.06    1104.0324    662.34147    2146.9958    451.39825    544.39856   -93.627968 
    8100    1701.6427    7038.3268   -143601.61   -136563.29   -136505.06    153.27164    608646.51    152.48201   -87.227075    394.55999    75.047711    559.78358   -193.58902 
    8200    1706.9209    7060.1584    -143603.4   -136543.24   -137033.24    -1287.835    609599.03   -1013.4853   -1526.0221   -1323.9976    402.52294    197.55318    156.12677 
    8300    1701.6967    7038.5502   -143571.38   -136532.83   -136860.77    -861.6814    609749.79   -558.87566   -682.05526   -1344.1133     251.9262    738.46108    -9.127968 
    8400    1709.2665    7069.8602   -143592.26    -136522.4   -136360.95     424.8784    608846.91    784.67179    48.257884    441.70554    853.19994    203.01432    441.67321 
    8500     1698.783    7026.4984   -143541.04   -136514.54   -136288.81    594.12752    608721.28    671.17153    1058.2752    52.935864    5.4913118   -19.259498    420.61438 
    8600     1694.179    7007.4552   -143517.37   -136509.92   -136837.22   -859.90146    609825.33    98.512527   -1206.2924   -1471.9245    217.60651   -73.047048    605.98683 
    8700     1697.408    7020.8111   -143524.85   -136504.04   -136923.26   -1101.2047    609942.94   -365.37424   -1299.6636   -1638.5762     385.3583    204.76422   -211.49397 
    8800    1707.0323    7060.6193   -143571.55   -136510.93   -136708.93    -520.3933    609601.83    136.59591   -575.99507   -1121.7808    493.52526    395.56092    104.48626 
    8900     1708.913    7068.3982   -143612.48   -136544.08   -136325.18    576.36636    608498.18    1263.8043   -51.426795    516.72158    186.04504     -256.714    319.54531 
    9000    1699.3216    7028.7262   -143612.74   -136584.01   -136061.47    1376.8744     608049.2    1552.9004      1624.24    953.48267    53.310812   -1.8115201    310.80638 
    9100    1689.8438    6989.5243   -143595.03   -136605.51   -136673.42   -178.72431    608857.18   -337.15742    60.456426   -259.47194    704.37168    -108.8483    18.160025 
    9200    1702.8691    7043.3994   -143653.64   -136610.24   -137359.75   -1969.3398     609776.6   -1657.4579   -2195.1478   -2055.4137    15.129912    224.79923    74.367851 
    9300    1695.3196    7012.1729   -143636.42   -136624.25   -136939.55   -829.17476    609248.55   -861.65073    -571.9989   -1053.8747    252.13336    599.17622   -285.74239 
    9400    1692.8816     7002.089   -143640.58   -136638.49   -136387.38    661.28179     608397.8    793.41548    1083.3326    107.09732    356.21574    38.632808    -61.64896 
    9500    1691.1739    6995.0256   -143636.83    -136641.8   -136587.15    143.86611    608641.44    446.11476   -95.135576    80.619149    421.89384   -88.842477   -120.26164 
    9600     1693.979     7006.628   -143632.51   -136625.89   -137126.18   -1314.6418    609718.94   -1245.3998   -865.94455    -1832.581   -454.79009   -288.09823    41.729853 
    9700    1704.1908    7048.8662   -143630.52   -136581.65   -136851.68    -710.3397    609047.42   -525.90218   -1017.3225    -587.7944    264.55197    204.89794    47.908234 
    9800    1706.0595    7056.5954   -143595.29    -136538.7   -135959.44    1526.5496    607956.32    1360.1945    1178.7744    2040.6798    443.74574    89.002097   -194.48497 
    9900    1715.6215    7096.1458   -143619.43   -136523.28   -136031.48    1295.9069    608032.46    965.73264    2213.9208    708.06725    177.52104   -233.07299   -280.00488 
   10000    1704.6885    7050.9247    -143582.7   -136531.77    -136728.4   -516.94695     609393.7   -659.00517   -120.62483   -771.21084   -87.905876   -533.39134    256.16895 
   10100    1695.2444     7011.862   -143562.25   -136550.39    -136991.3   -1158.7319    609644.11   -1288.9567   -1140.9405   -1046.2984   -403.73854   -7.6247727    495.41552 
   10200     1699.739    7030.4528   -143596.32   -136565.87   -136472.45      245.783    608966.19    928.26702   -213.22465    22.306627    152.06068    194.22132    688.91726 
   10300    1703.9858    7048.0182   -143636.19   -136588.17    -136113.3    1251.6543     607855.9    1094.7744     1478.936    1181.2526     55.98102    209.72228    598.38536 
   10400     1697.372    7020.6623   -143641.21   -136620.54   -136606.09    38.067018    608484.03    106.24229    676.89248   -668.93371   -147.78293   -171.17866    283.08156 
   10500    1695.6513    7013.5449   -143655.49   -136641.94   -137084.02   -1162.7951    609127.95   -921.17705   -1115.6011   -1451.6072   -72.705234   -281.37185    77.475252 
   10600    1691.4637    6996.2243   -143654.71   -136658.49    -136807.7    -392.7591    608669.32    102.26103   -698.74552   -581.79279    357.88924    190.47009     28.38862 
   10700    1690.2971    6991.3992   -143673.33   -136681.93   -136381.27    792.45586    607872.03    1057.8658    873.43002    446.07171    159.02652    518.89779    56.196963 
   10800    1681.2169    6953.8414    -143677.6   -136723.76    -136418.4    805.03116    607719.66    1238.8514    209.00375    967.23836    106.41953    253.19205   -356.37948 
   10900    1685.1037    6969.9183   -143712.87   -136742.95    -137141.2   -1048.0668    608797.77   -1114.0821   -1033.7804   -996.33804   -88.066643    500.53866   -12.145463 
   11000    1682.8001    6960.3899   -143688.35   -136727.96   -137085.04   -939.31822    609062.25   -913.18728   -1001.5311   -903.23631   -257.58551   -3.4192035   -122.86648 
   11100    1693.5814    7004.9837   -143693.62   -136688.64   -136579.36    287.87094    608203.38    483.47887    335.28174    44.852216   -76.700134    67.765186   -297.08141 
   11200    1692.2412    6999.4403    -143649.2   -136649.76   -136119.78    1396.8122    607901.73    1419.3717    1918.0096    853.05528    46.929472   -523.65936    -149.9624 
   11300    1706.9599    7060.3197   -143680.14   -136619.82   -136520.78    260.93275    608167.08    75.930315    295.16707    411.70087   -89.375482   -531.55962    150.62025 
   11400    1703.6736    7046.7268   -143651.77   -136605.04   -136928.36   -850.61612    608990.36   -893.63625   -776.48755   -881.72455    185.63506   -365.59325    204.92106 
   11500    1694.0864    7007.0722    -143603.2   -136596.13    -136562.2     89.29159    608679.53    229.02343   -261.80109    300.65243    246.32789   -768.05375    190.40077 
   11600    1706.6286    7058.9495   -143636.05    -136577.1   -136315.77    688.44611    608185.78    1442.1113     136.6995    486.52754    40.472608    9.9060314    108.14518 
   11700    1695.7419    7013.9197   -143566.68   -136552.76   -136486.55    174.12807    609157.23    570.19532   -32.932951   -14.878159   -13.110809   -83.104987    272.99871 
   11800     1697.792    7022.3996   -143544.44   -136522.04   -136889.93   -966.43117    609906.87   -1089.0475   -346.71054   -1463.5355   -105.03941   -29.971332    445.38325 
   11900     1708.995    7068.7374   -143573.76   -136505.02   -137118.87   -1611.4744    610306.22    -1329.602   -1177.9931   -2326.8279   -100.15906    140.41143    358.14497 
   12000     1701.083    7036.0117   -143548.77   -136512.76   -136436.98    199.25329    609342.61   -45.110715    87.775264    555.09532    336.58003   -415.45133   -11.120318 
   12100    1704.1685    7048.7739   -143573.25   -136524.48   -135868.48     1728.756    607969.29    1675.6765    1777.0747    1733.5168   -12.135329    55.835456   -139.54325 
   12200    1707.9591    7064.4524   -143601.63   -136537.17   -136546.23   -23.829564    609172.58   -168.30424    220.87577   -124.06022    6.5282269    283.56974   -47.818702 
   12300    1708.8549    7068.1577   -143616.19   -136548.03   -136795.43   -650.73547    609118.73   -937.19603   -382.30175   -632.70863    203.33794    58.035336   -65.506559 
   12400    1710.7873    7076.1505   -143640.88   -136564.73   -136691.51   -333.49954    609072.72    14.491202   -697.53385   -317.45596   -191.29708   -97.522999    103.33877 
   12500     1704.581    7050.4799   -143635.32   -136584.84    -136199.3    1015.4892    608276.69    1589.2719    876.54907    580.64678    171.47802    340.36932    78.469349 
   12600    1702.3738    7041.3507   -143644.75    -136603.4   -136222.64    1003.3185    608018.08     567.2619    1336.6029    1106.0907    262.82503    349.35927   -30.677856 
   12700    1688.5583     6984.207   -143601.89   -136617.68   -137034.73   -1096.2487    609526.18    -1931.324   -1141.6446   -215.77757   -84.172155    604.82943   -323.00618 
   12800    1695.6072    7013.3628   -143633.51   -136620.14   -137253.91   -1665.0455    609833.34   -2251.8462   -1578.4932    -1164.797    103.82992    391.04243    69.049787 
   12900    1697.5241    7021.2912   -143629.79   -136608.49   -136045.46    1483.3909    608120.67    1547.1973    1280.9948    1621.9806    446.56803   -356.59111    618.06084 
   13000    1706.9457    7060.2608   -143641.97   -136581.71   -136227.14    933.93198    608267.92    942.81503    1540.7274    318.25356    198.23403    148.26525    59.743933 
   13100    1705.7329    7055.2445   -143603.59   -136548.34   -136865.84    -834.9114    609277.44   -128.15516   -1220.7975   -1155.7816     187.9896   -93.534523   -182.48252 
   13200    1713.4612    7087.2101   -143606.51    -136519.3   -136875.04    -935.1455    609488.11   -860.84526   -794.86653   -1149.7247   -27.741888   -59.440968   -155.11545 
   13300     1702.353    7041.2644   -143543.67   -136502.41    -136441.2    160.95848    609211.76   -165.09307    385.61178    262.35674   -196.55111    36.585506   -144.04996 
   13400    1707.9753    7064.5194    -143551.3   -136486.78    -136172.9    826.23345    608641.73    1011.4113    812.14327    655.14576   -812.46622   -221.87485   -566.88811 
   13500    1714.7274    7092.4474   -143576.02   -136483.57   -136592.14   -285.46701    609340.74    148.73111   -540.03813   -465.09401   -453.04167   -270.15839    146.62321 
   13600    1715.4421    7095.4036   -143601.91   -136506.51   -136803.48   -780.74212    609429.55    -1004.578   -508.51771   -829.13064    142.52298   -447.11014    362.05444 
   13700    1704.3852    7049.6702   -143607.39   -136557.72   -136500.92    149.46649    608835.13   -45.474073    212.28973    281.58382    512.22681   -159.75356    419.99578 
   13800    1706.4435    7058.1836   -143655.45   -136597.27   -136519.27    205.46097    608242.41    421.36945    268.53696   -73.523493    298.57234   -31.345785    383.20759 
   13900    1695.3836    7012.4378   -143633.16   -136620.72   -136149.72    1241.2728    607949.85    1050.6915    1370.5923    1302.5347    249.97888    -282.6623   -89.353852 
   14000    1701.8436    7039.1575   -143663.52   -136624.36   -136482.94    372.50234    608274.45    390.90397    268.94606      457.657    359.39182   -303.03711   -377.26075 
Loop time of 58.288 on 32 procs for 7000 steps with 32000 atoms

Performance: 10.376 ns/day, 2.313 hours/ns, 120.093 timesteps/s
100.0% CPU use with 32 MPI tasks x no OpenMP threads

MPI task timing breakdown:
Section |  min time  |  avg time  |  max time  |%varavg| %total
---------------------------------------------------------------
Pair    | 46.209     | 47.992     | 50.752     |  13.1 | 82.34
Neigh   | 0.81865    | 0.87874    | 0.97102    |   4.2 |  1.51
Comm    | 4.8061     | 7.5669     | 9.4943     |  32.9 | 12.98
Output  | 0.010881   | 0.011028   | 0.011297   |   0.1 |  0.02
Modify  | 1.3998     | 1.551      | 1.7208     |   7.8 |  2.66
Other   |            | 0.2882     |            |       |  0.49

Nlocal:    1000 ave 1027 max 982 min
Histogram: 3 2 4 6 6 7 2 0 1 1
Nghost:    3553.88 ave 3587 max 3493 min
Histogram: 1 0 2 1 1 9 3 6 5 4
Neighs:    67648.6 ave 70108 max 65015 min
Histogram: 1 0 5 4 4 7 6 3 0 2

Total # of neighbors = 2164754
Ave neighs/atom = 67.6486
Neighbor list builds = 155
Dangerous builds = 0
unfix 1

dump            melt all custom 100000 dumpAg7mix.lammpstrj id type x y z

fix             1 all npt temp 1700 1000 0.2 iso 0.0 0.0 0.2
run     50000
Per MPI rank memory allocation (min/avg/max) = 3.124 | 3.126 | 3.128 Mbytes
Step Temp KinEng PotEng TotEng Enthalpy Press Volume Pxx Pyy Pzz Pyz Pxz Pxy 
   14000    1701.8436    7039.1575   -143663.52   -136624.36   -136482.94    372.50234    608274.45    390.90397    268.94606      457.657    359.39182   -303.03711   -377.26075 
   14100    1698.3621    7024.7573   -143645.58   -136620.82   -136397.21    588.90026    608364.14    706.29736    324.50514    735.89829    91.484497   -12.617089    324.35634 
   14200    1702.2843    7040.9805   -143654.29   -136613.31   -136833.77   -579.95024    609054.07    -218.1015    -711.9387   -809.81053    401.32012   -310.64237     246.1723 
   14300    1690.8764    6993.7952   -143604.98   -136611.19    -137169.9   -1467.9206    609816.99   -907.17842   -1891.7885   -1604.7948     584.2076   -140.98519   -4.0634384 
   14400    1709.1489    7069.3738   -143679.62   -136610.25    -136452.6     415.2032    608344.82    1312.6491    -250.2147    183.17518    47.339551     106.7277   -79.577421 
   14500    1699.1635    7028.0724   -143655.97   -136627.89   -135901.62      1914.99    607637.12    1851.0788    2266.5764    1627.3149    272.82675    411.96482    72.766256 
   14600    1697.2877    7020.3135   -143688.95   -136668.64   -136410.66    679.65549    608146.16    901.49798     529.0907    608.37778    116.68907    175.89067    207.79984 
   14700    1686.0702    6973.9159   -143678.87   -136704.96   -137093.25   -1021.2161    609191.37   -1401.2958   -825.07858   -837.27385   -49.159447   -44.988598    57.761147 
   14800    1672.7085    6918.6492   -143645.26   -136726.61   -137078.58   -925.65146     609223.1   -368.92709   -1184.1798   -1223.8475    386.43496    677.23515    226.09823 
   14900    1680.2443    6949.8187   -143679.45   -136729.63   -136735.36   -15.099779    608457.28    -13.07107   -586.34694    554.11867    363.74471    335.42315   -136.73615 
   15000    1695.1038    7011.2807   -143738.65   -136727.37   -136697.12    79.702949    608121.84    62.671028   -908.44533    1084.8832    187.30328    69.317343    223.95458 
   15100    1688.7456    6984.9818   -143721.08    -136736.1   -136433.66    797.49835    607596.93   -109.97652    1171.8247    1330.6468   -468.86328     246.9717    610.68414 
   15200    1690.2307    6991.1244   -143748.15   -136757.02   -136138.72    1631.6714    607126.31    1986.8656    1345.2949    1562.8536   -180.99605    481.55474    19.530112 
   15300    1682.0532    6957.3006   -143755.93   -136798.63   -136979.41   -476.22799    608199.49   -667.98576   -345.96478   -414.73342   -577.80951   -106.63853    358.32575 
   15400    1665.3192    6888.0855   -143725.04   -136836.96   -137209.32    -980.2577    608614.61   -1118.4744   -308.21137   -1514.0873    93.919996    266.35259    194.63636 
   15500    1665.9934     6890.874   -143738.03   -136847.15   -136977.46   -343.14707    608417.64   -448.21756   -301.06137   -280.16227   -483.05209    259.80815    636.30751 
   15600    1676.2667    6933.3666   -143776.74   -136843.37   -136657.05    491.12803    607836.74    477.87536    1106.4546   -110.94586   -155.08782   -297.18298    672.91552 
   15700    1680.6838    6951.6365   -143793.92   -136842.28   -136712.25    342.63649    608001.84    183.59834    762.18952    82.121616    326.51673   -486.45791    377.98456 
   15800     1675.871      6931.73   -143777.32   -136845.59   -137250.51   -1065.4768    608890.83   -1553.3023    -613.3097   -1029.8184    17.559769    210.89238    327.36907 
   15900    1680.8589    6952.3607   -143802.56    -136850.2   -137048.41   -522.07908    608303.86   -921.50547   -211.57099   -433.16079   -77.111393    823.63893    471.80223 
   16000    1681.5443    6955.1956   -143819.59    -136864.4   -136463.63    1057.4919    607184.44    1037.5307    1708.8061    426.13896   -122.16507    29.687946   -18.618195 
   16100     1675.987    6932.2096   -143846.01    -136913.8   -136673.77    633.45659    607101.34    810.24503    1488.8356   -398.71081   -311.27466    65.844374    190.93613 
   16200    1675.0297    6928.2501    -143895.6   -136967.35   -137140.21   -455.87932    607511.12    353.55738   -1063.0071   -658.18827    2.6562692     317.3252    -53.30648 
   16300    1657.1918     6854.469   -143839.63   -136985.16   -136674.89    819.15555    606860.35    1457.4081   -121.96533    1122.0239     92.29291   -54.440446    180.35088 
   16400    1675.1992    6928.9512   -143909.61   -136980.66    -136672.9    812.70139    606726.26    1246.5062   -192.41131    1384.0092    284.93616   -249.25078    246.95977 
   16500    1661.6204    6872.7867    -143847.7   -136974.92   -137510.45   -1410.0272    608513.16   -1580.9741   -1358.1294   -1290.9779   -189.28501    -95.28203   -188.08592 
   16600    1659.8098    6865.2977   -143829.89   -136964.59   -137340.43   -989.94295    608280.92   -795.87888    -1648.274   -525.67595    -484.7578   -205.42362   -208.89415 
   16700    1675.3988    6929.7767   -143887.75   -136957.98   -136644.11    828.48437    606982.87    791.07371    1174.5106    519.86877   -505.71847     278.3472    513.63406 
   16800    1665.6826    6889.5888   -143862.47   -136972.88   -136349.91    1645.3038    606643.35    1037.5461    2333.9019    1564.4633   -360.53345    172.49017   -87.950977 
   16900    1665.9415    6890.6596    -143895.9   -137005.24   -137331.44   -859.70037    607916.04   -1297.7753   -698.54143   -582.78441    269.16034    115.63035    1065.8551 
   17000     1651.396    6830.4965   -143878.07   -137047.58   -137379.47   -874.80921    607842.71   -814.96371   -761.28539   -1048.1785    51.649405    61.310748    353.73891 
   17100    1655.2666    6846.5059   -143921.09   -137074.59   -137133.58   -155.67214    607192.86   -62.227467   -243.30104   -161.48791    -804.9223   -88.972655    767.82551 
   17200    1657.1733    6854.3927   -143944.43   -137090.04   -137062.46    72.778105    607063.76   -264.96699    160.80209    322.49921    2.7961286    304.11613    492.19354 
   17300    1664.0587    6882.8719    -143986.1   -137103.22   -136564.89    1423.3377    605973.29     1227.224    961.76799    2081.0213   -530.89424   -504.43041    136.94162 
   17400    1644.3348    6801.2902   -143918.34   -137117.05   -136832.85    750.49625    606715.38    485.40077    177.48379    1588.6042    16.637254   -276.09007   -25.923258 
   17500    1652.2014    6833.8276   -143950.78   -137116.96   -137625.79   -1341.3106    607795.99   -959.77328   -1507.2508   -1556.9076   -190.16308    86.307825    625.75445 
   17600    1641.5486    6789.7656   -143910.22   -137120.46   -137684.39   -1485.2399    608331.03   -1648.8924   -1446.0913    -1360.736   -606.99613    867.12987    196.17713 
   17700     1649.536    6822.8034   -143940.68   -137117.87   -136956.98    424.77327    606880.23     741.5448     386.9739    145.80112   -257.17077    184.07174    304.25917 
   17800    1650.7175    6827.6901   -143942.45   -137114.76   -136567.01      1447.39    606331.17    1343.6683    1422.2359    1576.2658    -49.61276    200.83188    231.57155 
   17900    1660.4905    6868.1132   -143998.49   -137130.38   -137231.17   -266.08972    606891.87   -523.69131    196.81988   -471.39774    163.68992    558.67235    160.87187 
   18000    1642.5604    6793.9508   -143967.82   -137173.87   -137580.29   -1071.8954    607494.27   -1781.2149   -524.56247   -909.90897    172.26013    162.20123    40.550856 
   18100    1640.7978    6786.6603   -143997.97   -137211.31   -137334.85   -326.16141    606879.15    184.47141   -701.32798   -461.62767   -76.108456   -51.597996   -36.727966 
   18200    1641.4601    6789.3995   -144024.32   -137234.92   -136772.15    1223.5766     605960.9    2108.7447    768.53184    793.45321    362.50517   -564.08912   -271.82205 
   18300    1638.5459    6777.3461   -144029.62   -137252.27   -136973.92    735.83814    606069.25    967.83398    225.00781    1014.6726    -371.2053    469.93442   -96.374346 
   18400     1647.947    6816.2307   -144082.44   -137266.21   -137776.36   -1345.9402    607271.25   -433.38869   -1669.3342   -1935.0977   -542.71012   -876.24463   -142.96293 
   18500    1626.4065    6727.1351   -144015.34   -137288.21   -137600.12   -823.06577    607171.76   -519.36037   -917.02508   -1032.8119    123.66575    17.531062   -47.362866 
   18600    1642.8452    6795.1286   -144096.46   -137301.33    -136914.8    1022.2585    605813.65     723.9144    1233.0309    1109.8301    214.21181    75.529261   -56.357438 
   18700    1633.9405     6758.297   -144083.68   -137325.38   -137113.35    560.58016    606003.09    101.23592    1212.8438    367.66071     253.6269    -356.6911   -142.28949 
   18800    1627.2629    6730.6775   -144083.72   -137353.04   -137619.69   -703.85129    606971.92   -1286.1924     -420.761   -404.60043    -563.4595   -366.78082   -221.88183 
   18900    1622.2062    6709.7618   -144087.69   -137377.93    -138065.4   -1813.3228    607419.35   -1400.5063   -1622.1242   -2417.3379   -368.99055   -256.73588   -331.63664 
   19000    1626.1035    6725.8819   -144126.83   -137400.95    -137144.8    677.68991    605594.21    660.27772    723.06977    649.72226   -348.02345    502.54303   -50.344357 
   19100    1619.4581     6698.395   -144136.85   -137438.45   -136920.81    1370.5894    605108.19    1461.3314    924.23148    1726.2053   -312.09674     336.3274    61.583061 
   19200    1608.4814    6652.9932   -144132.84   -137479.84   -137497.75    -47.35402    605895.02    426.20833   -664.34672    96.076325   -341.90289   -237.35011    514.26672 
   19300    1609.7952    6658.4276   -144150.33   -137491.91   -137952.99    -1217.864    606584.47   -966.05368   -1563.5428   -1123.9956   -317.49969    275.72296    561.70086 
   19400     1621.853    6708.3009      -144180    -137471.7   -137484.36   -33.491249    606009.05   -124.18125    58.711067   -35.003563    59.288778    82.168571    -66.48209 
   19500    1625.9849    6725.3911   -144162.59    -137437.2   -137101.03     889.7072    605364.84    1204.1739     735.8346    729.11308    78.154182    595.14638    569.20512 
   19600    1619.7971    6699.7974   -144108.54   -137408.74   -136979.79    1134.8632    605581.63    721.65743    1106.9078    1576.0242    302.63235    12.924918    250.14814 
   19700    1630.3861    6743.5956   -144138.48   -137394.88   -137576.31   -479.49704    606210.58    27.572004   -626.79202    -839.2711   -83.297725    508.54373   -8.4389623 
   19800    1614.8841    6679.4763   -144078.13   -137398.65   -137987.18   -1553.0475    607145.63   -749.94716   -1547.8813    -2361.314    -182.7632    83.580012    40.385979 
   19900    1628.3553    6735.1957   -144142.86   -137407.67    -137501.7   -248.58471    606062.37    163.48818   -454.59379   -454.64851   -376.98841   -118.02757    381.12373 
   20000    1627.8155    6732.9629   -144163.61   -137430.64   -137166.23    699.61333    605527.83     818.7117    701.32445    578.80384   -602.57211    12.744099   -59.690351 
   20100    1617.7181     6691.198   -144152.12   -137460.92      -137330    346.21081    605859.69   -381.76746    598.77018    821.62971   -206.95363    383.12121    430.80154 
   20200    1611.8053    6666.7418   -144152.24    -137485.5   -137774.19   -762.64643    606474.68   -640.07164   -819.71488   -828.15277   -221.35497    157.32002    271.91014 
   20300    1610.8209    6662.6701   -144166.71   -137504.04   -137588.83   -224.21519    605885.46   -759.79801    72.695911    14.456541     140.5457     492.5722    209.11174 
   20400    1624.3427    6718.5989   -144239.45   -137520.85   -137064.84    1208.2873    604659.28    1417.3279     692.2159     1515.318    250.46677     543.1786     -210.596 
   20500    1619.4969    6698.5556   -144248.13   -137549.58   -137202.17    920.06727    604959.09    813.00536    920.49493    1026.7015     111.3202    643.26739   -516.11612 
   20600    1599.9354    6617.6452   -144190.88   -137573.24   -137916.53   -907.28214    606215.53   -878.55493   -958.76529    -884.5262   -47.724034    149.44118   -439.93283 
   20700    1605.4108    6640.2927   -144219.74   -137579.45   -138135.51   -1469.2678    606362.27   -2032.1433   -960.82834   -1414.8318    4.0144918     275.5949   -210.80683 
   20800    1622.4548    6710.7902   -144296.78   -137585.99   -137118.76    1237.9186    604717.68    1108.0108    1322.9213    1282.8237    359.39242    863.73847     -52.4015 
   20900    1609.1152     6655.615   -144262.44   -137606.83   -137252.05    939.91533    604756.75     771.8453    1207.7284    840.17232    847.77486    613.70356    113.15871 
   21000    1606.6676    6645.4912   -144272.98   -137627.49   -137665.47   -100.55116    605225.43   -210.49064   -84.357998   -6.8048264   -316.45179   -422.65514    425.93041 
   21100    1604.1428    6635.0482   -144283.28   -137648.23   -137974.53   -863.40693    605504.53   -1049.6705   -961.38819   -579.16204   -973.37968  -0.58641277    207.06266 
   21200    1605.6915    6641.4536   -144305.54   -137664.09   -137357.85    811.54209    604580.68    1332.3973    817.90459    284.32438   -703.11828   -374.81546    48.568886 
   21300    1603.1084    6630.7697   -144308.15   -137677.38      -136947     1937.812    603876.82    2038.0917    1632.1723    2143.1719    -369.3041    238.20387    559.55762 
   21400    1603.7003    6633.2178   -144321.67   -137688.46   -137740.74   -138.47732    604906.77   -123.93825    563.75571   -855.24943    121.04786    108.02844    338.96036 
   21500    1599.1253    6614.2947   -144307.31   -137693.02   -138072.14   -1003.0054    605598.35   -1112.7271   -885.88548   -1010.4038    -527.9347   -85.159504    393.39983 
   21600     1599.213    6614.6573   -144315.17   -137700.51   -137850.32   -396.54166    605296.23    -578.5323   -321.93929   -289.15338    -328.0598    184.34094    357.94217 
   21700    1593.8752    6592.5794   -144305.88    -137713.3   -137106.01    1610.7112     604071.9    2077.6774    856.22833     1898.228    483.37936    -233.9789    84.145164 
   21800    1604.2719     6635.582   -144360.58      -137725   -137380.87    912.49241    604225.32    1267.1713    532.53784    937.76811    184.39031   -389.35594   -143.60663 
   21900    1587.1537     6564.778    -144313.7   -137748.93   -137989.24   -636.08254    605298.81   -830.44702   -745.00903   -332.79156   -239.93221   -15.979383    64.458319 
   22000    1576.5178    6520.7856   -144306.21   -137785.42    -138135.8   -927.51063    605237.02   -1293.0675   -633.62194   -855.84244      257.661   -116.95761    602.09249 
   22100    1570.8348    6497.2798   -144331.77    -137834.5    -138452.2   -1633.9168    605705.32   -1600.9963   -1836.3943   -1464.3597   -39.402295   -629.13854    368.48326 
   22200    1576.9521     6522.582   -144380.52   -137857.94   -137765.76    244.44818    604152.86    261.93368    230.58871    240.82214    165.55293    -93.75901    240.18098 
   22300    1580.5029    6537.2687   -144396.21   -137858.94   -137415.33    1177.3525     603680.7     1600.036    860.99961    1071.0219   -181.78447   -586.56094     44.45951 
   22400     1586.711    6562.9468   -144419.28   -137856.34   -137829.39    71.422047    604396.09   -111.83782    537.91304   -211.80908   -271.33521    113.78357    63.508326 
   22500    1582.9365    6547.3348   -144402.63    -137855.3   -137858.86   -9.4460028    604403.74   -15.497108    -115.6642     102.8233    206.26005   -262.52349    81.948943 
   22600    1580.6313    6537.7997   -144395.69   -137857.89   -138050.83   -511.25929    604621.94   -676.53089   -385.12119   -472.12578    -37.68919   -720.97146   -142.82226 
   22700    1573.6195    6508.7978   -144370.77   -137861.97   -137702.78    422.02565    604363.83    269.47913    323.35322     673.2446   -140.45451   -310.61407    344.91378 
   22800     1584.331    6553.1026   -144417.96   -137864.86   -137343.35    1383.9885    603728.68    989.03556    1535.4941     1627.436    -85.83687   -637.51195   -21.772786 
   22900    1584.4373    6553.5422   -144442.01   -137888.47   -137922.81   -91.060426     604297.8    765.71259   -687.43115   -351.46272    95.795477   -1.7820422   -969.72471 
   23000    1568.6467    6488.2294   -144425.05   -137936.82   -138578.82   -1698.9896    605411.09   -1817.5762   -1868.6751   -1410.7176   -149.28777   -68.486806   -247.79755 
   23100    1573.4076    6507.9212   -144472.01   -137964.09   -137752.34    561.75618    603946.42    130.33555    602.16856    952.76443    436.80286   -302.75792   -32.583128 
   23200    1580.1295    6535.7242   -144520.08   -137984.36   -137737.31    655.68154    603664.93    851.56014    496.22607    619.25842   -609.18631    165.75163   -476.72922 
   23300    1573.8042    6509.5618   -144514.13   -138004.57   -138002.27    6.1007116    603791.49    9.7647878    -380.2153    388.75265    77.655701    24.322416    56.863898 
   23400     1562.644    6463.4007   -144486.59   -138023.19   -138350.16   -866.32984    604692.35    -360.7474   -1499.7891   -738.45302    405.74215   -201.50607   -239.75602 
   23500    1569.1589    6490.3479   -144533.54   -138043.19      -138456   -1094.3031     604408.4   -937.33577   -907.28982   -1438.2839   -142.63425   -328.13492   -206.83033 
   23600    1557.1749    6440.7795   -144504.95   -138064.17   -137751.53    829.91732    603560.69    705.35864    1564.7803    219.61303    405.15489    273.56177    482.13908 
   23700    1569.1806    6490.4377   -144568.89   -138078.46   -137902.65    466.60337    603681.14    324.06143     228.6688    847.07986   -445.98309    281.67894    64.946628 
   23800    1565.6011     6475.632   -144569.24   -138093.61   -138583.91     -1299.87    604328.99   -1389.2953    -1162.592   -1347.7227   -91.263317   -161.45027    168.16593 
   23900    1550.6857     6413.939   -144522.21   -138108.27   -138565.33   -1211.1383     604629.3    -1544.466   -451.66619   -1637.2825    180.06748   -138.34911   -111.79393 
   24000    1563.7504    6467.9771   -144573.04   -138105.06   -137868.59    627.95212    603338.53    449.65067    496.34415    937.86155   -74.162989    338.87438     295.2699 
   24100    1561.2995    6457.8399   -144561.43   -138103.59   -137884.26     582.6014    603185.27    364.21252    896.53271    487.05898    50.073316    103.99555   -134.77892 
   24200    1574.8932    6514.0659   -144629.09   -138115.02   -138348.64   -619.93966    603754.78   -780.45283   -183.92713   -895.43902    440.32252    184.36139   -97.998726 
   24300    1550.6409    6413.7538   -144551.69   -138137.94    -138514.9   -999.53094    604248.73   -1296.9115   -1007.5066   -694.17468   -30.117928    310.72295   -122.60499 
   24400    1544.7085    6389.2163    -144537.7   -138148.48   -138072.72    201.10453    603614.81    452.71444    694.97755   -544.37839    212.09447    446.99017   -509.30518 
   24500    1561.0461    6456.7917   -144602.93   -138146.14   -137885.32    692.77045     603203.5    385.91961    1465.1181    227.27362    192.18853    117.48582   -154.07513 
   24600    1560.0839    6452.8117   -144597.22   -138144.41   -137942.94    535.15251    603172.51      57.7229    348.07051    1199.6641    254.22486   -21.281059     201.6609 
   24700    1553.6997    6426.4057   -144573.89   -138147.48   -138448.23   -797.80566    603979.16   -525.76318   -724.10872   -1143.5451    117.56819   -329.64168    152.29616 
   24800    1555.1452    6432.3845   -144597.51   -138165.12   -138695.91   -1407.2104    604322.07   -1538.1265   -910.07447   -1773.4304    192.59233   -57.018006    30.764443 
   24900    1547.2632    6399.7829   -144616.25   -138216.46   -137924.93    774.43427    603136.92    559.60376    1107.0291    656.66991   -242.63355    45.275739   -474.91619 
   25000    1545.7352    6393.4626   -144647.46   -138253.99   -137759.62    1314.6923    602483.78    1495.3995    1571.4872     877.1903   -120.77427    91.099098    426.06238 
   25100    1544.6708    6389.0604   -144661.65   -138272.59   -138472.18    -529.7937    603579.92   -877.20982   -353.24774   -358.92353   -153.71365   -122.58759    328.06303 
   25200    1539.8414    6369.0848   -144654.53   -138285.45   -138756.94   -1250.7345    603974.35   -1486.5655   -1320.7518   -944.88626     156.8659   -303.51588    369.99481 
   25300    1538.9346    6365.3341   -144661.19   -138295.86    -138194.4    269.61383    602935.79   -65.697923    860.37825    14.161175   -253.80456   -311.70667     332.3023 
   25400    1546.3054    6395.8213   -144700.97   -138305.15   -137664.07    1705.7453    602157.72    1705.9449    1605.1719    1806.1192   -334.95532   -209.87216    216.03146 
   25500    1547.4143    6400.4081   -144719.02   -138318.62   -138201.49    311.31843    602783.07    511.45432    389.52474    32.976218   -291.35923   -452.13445   -26.831796 
   25600    1541.9393     6377.762   -144717.06    -138339.3   -138954.17   -1631.3899    603861.15   -2325.4421    -1244.837   -1323.8906   -308.78365    194.46406    139.24176 
   25700    1539.8373    6369.0677   -144743.67    -138374.6   -138309.92    171.89234    602822.34    446.95577    776.24359   -707.52233    254.81229   -82.688194    6.3324906 
   25800    1530.0125    6328.4307   -144738.22   -138409.79   -138220.15    504.52892    602222.85    582.20054    1482.0456   -550.65936    231.95558    409.44966    216.46303 
   25900    1522.4375    6297.0989   -144722.32   -138425.22   -138565.36   -372.45553    602808.84   -84.412765   -653.70931   -379.24451    315.94208    109.65645   -294.36617 
   26000     1528.994    6324.2181   -144749.56   -138425.34   -138723.22   -791.14713    603252.57   -262.01351   -1219.9447   -891.48323    331.13824    395.98186    85.204029 
   26100    1526.0422    6312.0089    -144739.1   -138427.09   -138690.59   -700.15752    602978.93   -1287.2385   -271.45427   -541.77984    367.85103    429.78689   -656.58895 
   26200    1528.2951    6321.3271   -144754.68   -138433.35   -138113.65    850.72088    602099.67    310.93904     1794.569    446.65465    579.54909    593.92584   -182.74614 
   26300     1541.546    6376.1355   -144822.64    -138446.5   -137977.16    1249.8722    601633.96    1382.0805    1423.0797    944.45642    181.58186     419.9816   -88.090055 
   26400    1530.5159    6330.5126   -144810.73   -138480.22   -138765.05   -757.12012    602740.64   -1078.1278   -640.79685    -552.4357   -14.282116    224.81635    151.03694 
   26500    1527.7645    6319.1324   -144832.18   -138513.05   -138994.26   -1278.5601    603012.87   -1533.1345   -933.71423   -1368.8315   -520.17459   -240.29635    382.51241 
   26600    1529.0956     6324.638   -144857.75   -138533.11   -138222.12    827.94286    601796.73    460.46581    1228.8512    794.51159   -231.75285    180.11336    620.41473 
   26700    1515.5379    6268.5611   -144814.05   -138545.49   -137961.28    1556.5413    601337.41    1491.9038     1442.318     1735.402   -61.942404    260.50551    765.77907 
   26800     1524.259     6304.633    -144854.5   -138549.87   -138693.09   -381.06048    602187.39    -798.0724   -274.28043   -70.828605   -319.27187   -137.41643    87.722255 
   26900    1515.9576    6270.2967   -144824.98   -138554.69    -138921.2   -974.08347     602850.5   -1620.8004   -482.62916    -818.8208    261.16038    348.55881   -237.49518 
   27000    1526.5839    6314.2493   -144876.36   -138562.11   -138428.12    356.62879     601962.9    193.65829    658.36046    217.86762    718.89652   -312.29282   -319.03482 
   27100    1524.9594    6307.5299   -144895.72   -138588.19   -138049.04    1436.7935    601217.07    1447.3283    1616.4291     1246.623   -177.84574   -259.57496    76.817206 
   27200    1518.5605    6281.0627   -144903.98   -138622.91   -138687.08    -170.8277    601847.54   -523.34124     -224.671    235.52915    313.91614   -218.94828    64.720725 
   27300    1510.9963    6249.7759   -144886.32   -138636.55   -139177.77    -1438.253    602915.09     -1732.81   -1269.6547   -1312.2943     329.8308    15.881656     330.3617 
   27400    1512.3586    6255.4105   -144892.73   -138637.31   -138829.19   -510.50773    602171.87   -52.057724   -1340.0767   -139.38877      113.485    215.53332   -280.10392 
   27500    1513.0377    6258.2194   -144894.94   -138636.72    -138207.1    1145.0399    601149.93    1429.1163    763.48625    1242.5172    18.515605    342.66016   -232.04075 
   27600    1521.5192    6293.3006   -144932.57   -138639.27   -138376.61    699.82963    601321.54    1179.2016    431.62876    488.65857    39.501468    264.87506   -91.278727 
   27700    1518.1778    6279.4801   -144927.59   -138648.11   -138557.11    242.41738    601439.17    651.98126    26.288634     48.98224    42.189224   -212.09117   -147.97334 
   27800    1513.7365    6261.1098   -144926.18   -138665.07   -138788.16   -327.66783    601876.27   -637.74797   -663.40682     318.1513    476.31107   -134.07453    172.90582 
   27900    1516.4448    6272.3118   -144964.01    -138691.7   -138679.93    31.335571    601690.26    360.18541    -49.85989   -216.31881    886.78507   -41.031142     612.8078 
   28000     1506.722    6232.0965   -144955.03   -138722.94   -138332.56    1040.6865    601000.32    878.80315     1045.638    1197.6184    246.92975   -509.08037     641.9163 
   28100    1517.1667    6275.2981   -145012.49   -138737.19   -138980.88   -648.77046    601796.52   -724.21525   -701.64922    -520.4469    337.71596   -205.56362    567.69389 
   28200    1498.5197    6198.1704   -144950.31   -138752.14   -139033.36   -748.52795    601919.12   -250.48654   -728.17621   -1266.9211   -48.997584   -370.64861    115.64887 
   28300     1505.622    6227.5468   -144993.36   -138765.81   -138482.94    754.24825    600871.95    586.03311    317.02873    1359.6829   -173.84887   -374.36594    29.825065 
   28400    1500.5028    6206.3729   -144990.78   -138784.41   -138069.32    1908.3395    600360.79    2005.6324     1971.029     1748.357   -375.04686    356.98693   -102.00937 
   28500    1499.4402    6201.9778    -145008.4   -138806.42   -139031.22   -598.59763    601673.11   -658.73356   -332.13713   -804.92219    268.09987    29.596687    246.45041 
   28600    1490.2641    6164.0236   -144995.82    -138831.8   -139264.81   -1152.4414    601994.07   -536.93368   -916.00388   -2004.3867    72.855871    -475.5844   -582.26406 
   28700    1497.1999    6192.7114   -145045.51    -138852.8   -138743.36    291.70159    601090.12    142.32978    594.53602    138.23897    276.29267    12.170084    312.68439 
   28800    1497.0521    6192.0999   -145067.11   -138875.01   -138675.01    533.34509    600820.33    801.69195    717.41428    80.929051    390.63513    77.551026    185.50986 
   28900    1496.5896    6190.1869   -145084.47   -138894.28   -138626.24    715.18532    600459.48    847.69574    388.76151    909.09872    3.1749983    57.158266   -75.348537 
   29000    1477.0997    6109.5731    -145017.9   -138908.33   -139316.38   -1086.4207    601768.34   -514.63177    -1795.617   -949.01323    34.489053   -63.734689   -236.74086 
   29100    1484.3975    6139.7583    -145042.7   -138902.94    -139415.9   -1366.0104    601641.55   -1263.2234   -1560.0708    -1274.737    177.26338    170.39636     228.9439 
   29200    1484.5678    6140.4625   -145040.58   -138900.12   -139109.92   -558.90348    601432.96   -839.41758   -728.16561   -109.12725    225.67334   -45.354793    188.73693 
   29300    1487.7163    6153.4855   -145058.34   -138904.86   -138579.46    868.21875    600462.85    817.29325    674.47642    1112.8866    220.70461   -484.40419    353.98508 
   29400    1495.9467    6187.5279   -145103.84   -138916.31   -138882.79    89.425085    600658.09   -178.80848    337.18011    109.90363   -422.09874   -78.330497    402.76002 
   29500    1475.0117    6100.9365   -145030.28   -138929.35   -139085.35   -415.56367    601455.37   -327.70344   -582.37352   -336.61404    -347.6002   -29.678961   -27.425372 
   29600    1488.1427    6155.2492   -145089.79   -138934.54   -139021.98    -233.0662    601104.46   -617.98397   -259.97735    178.76272   -157.55982    427.67284    191.21601 
   29700    1478.0467      6113.49   -145059.18   -138945.69   -138665.28    748.01893    600611.06    659.54238    800.67514    783.83926    -491.9296    74.909989   -416.30155 
   29800    1488.7371    6157.7074   -145114.35   -138956.64   -139314.24   -952.70421    601383.32   -794.55031   -1034.7297   -1028.8326    235.14922   -49.099819   -304.49358 
   29900     1482.282    6131.0078   -145105.35   -138974.34   -138880.24    251.01886    600629.34   -95.168684    586.60006    261.62521   -480.90254   -295.65228   -522.66626 
   30000    1480.8811    6125.2138   -145123.44   -138998.23   -138337.14    1766.2708    599665.75    1872.9337    2429.4956    996.38307    195.61823    199.99511   -249.99007 
   30100    1476.7335    6108.0584   -145130.11   -139022.05   -139119.58   -260.10135    600763.01    -210.5798     94.97644   -664.70069    5.6930935   -44.797865    34.475067 
   30200    1482.8956    6133.5458   -145170.51   -139036.97   -139532.88   -1321.3873    601296.59   -1830.2949   -784.25162   -1349.6153   -878.93341    -776.6129   -457.63387 
   30300    1480.7941    6124.8538   -145179.41   -139054.56   -138971.87    220.69143       600326    39.364955    712.47647   -89.767137   -154.81928    99.994781   -844.60029 
   30400    1474.2464    6097.7712    -145178.2   -139080.43   -138973.36     285.6999    600425.16   -20.839477    554.27446    323.66471   -608.74172    142.58572   -6.4572501 
   30500    1473.8322    6096.0578   -145198.21   -139102.15   -139252.33   -400.67606     600543.9   -58.002643    58.357104   -1202.3826   -632.03325    6.6437874    334.99761 
   30600    1474.0126    6096.8043   -145217.77   -139120.97   -139621.33   -1333.9848    600963.71   -1212.8554   -700.65131   -2088.4478   -522.33458    103.74682    73.778702 
   30700    1467.6402    6070.4467   -145216.64   -139146.19   -139027.84    316.10298    599875.33    558.37452    439.94088   -50.006439   -290.44838   -326.89248    288.01167 
   30800    1466.7124    6066.6092   -145239.18   -139172.57   -138756.93    1111.0811     599355.9    1192.3366    1050.5605    1090.3463   -395.51152   -276.67541    306.15699 
   30900    1470.6363    6082.8391    -145272.7   -139189.86    -138978.8     564.1515    599429.72    789.98955     709.0516    193.41334    134.76943   -286.46002    434.59525 
   31000     1469.068    6076.3524   -145282.91   -139206.56   -139504.96   -796.18771    600475.26   -304.41685   -730.34158   -1353.8047   -299.03119    82.632868   -283.01509 
   31100    1460.0219    6038.9359   -145261.17   -139222.24   -139444.65   -593.42547    600488.73   -685.70078   -197.00634   -897.56928   -529.15332   -844.01354     634.3128 
   31200    1456.4451    6024.1416   -145256.09   -139231.95   -138889.89    913.80502    599741.17     1555.652    976.49098    209.27206   -388.31562   -189.83841   -59.973482 
   31300    1462.4449    6048.9579   -145290.81   -139241.85   -139181.35    161.66354    599614.96    1197.9719   -574.73581   -138.24545   -328.18724    262.49059   -242.61192 
   31400    1441.2266    5961.1948   -145216.76   -139255.56   -139689.42     -1156.78    600899.45    -396.4332   -1774.2245   -1299.6824   -307.61576    427.74329   -428.30607 
   31500    1460.4298    6040.6231   -145304.15   -139263.53   -139659.23   -1055.9636    600392.14   -943.43556   -1270.5115   -953.94364    176.05273   -55.497177   -197.98127 
   31600    1446.1025    5981.3626   -145274.31   -139292.95    -138919.3    998.91921    599300.31    1684.6536    368.86832    943.23568   -337.61018   -423.14137    232.92245 
   31700     1453.348    6011.3311   -145345.43    -139334.1   -139063.29     724.0464    599250.86    1006.1914    87.387544    1078.5603   -639.09255     65.79451    193.99997 
   31800    1450.4223    5999.2299   -145362.96   -139363.73   -139353.85    26.405366    599266.71     683.4398     -469.913    -134.3107   -427.38052   -253.98066    34.687725 
   31900    1443.0403    5968.6964   -145347.02   -139378.33   -139777.01   -1064.8819    599842.26   -936.80486   -1646.7962   -611.04479   -438.37912   -174.45962   -14.095257 
   32000    1438.2654    5948.9468   -145335.89   -139386.95   -139626.29   -639.20078    599919.38   -679.46261   -871.11795   -367.02177   -321.75982    142.74509   -74.074886 
   32100    1440.6666    5958.8785    -145346.5   -139387.62   -138798.54    1576.7251    598585.91    1571.6469    1933.7292    1224.7992   -337.08783   -251.86415    335.73464 
   32200     1459.621    6037.2775   -145421.36   -139384.08    -139458.2   -198.16989    599255.44    -56.52599   -393.44952   -144.53417   -647.56606   -574.92741     198.1596 
   32300    1441.8618    5963.8221    -145363.1   -139399.28   -139683.07   -757.92893    599910.33   -274.10906   -1023.8439   -975.83381     -146.762    703.67448   -116.31874 
   32400    1438.9524    5951.7883   -145393.17   -139441.38   -139788.71   -927.68453    599855.06   -1547.5065    -988.6337    -246.9134   -552.33997    250.50537    238.35678 
   32500    1431.2493    5919.9266   -145394.15   -139474.23   -139179.48    788.66471    598771.42     806.3786    491.79773    1067.8178    111.10731    35.398342    804.20492 
   32600    1436.6225    5942.1514   -145419.53   -139477.38    -138951.1    1409.0938    598391.32    1221.7076    862.12767     2143.446   -266.89146   -93.842068    55.026341 
   32700    1444.2423    5973.6684   -145448.85   -139475.18   -139556.51    -217.4768    599211.89   -55.571079   -251.18316   -345.67617    94.621984      144.288    -165.8943 
   32800     1433.237    5928.1481   -145408.25    -139480.1   -140017.92   -1436.1723    599980.13   -1781.7726   -1042.3423   -1484.4019    61.961695    422.72664   -25.695468 
   32900    1430.6351    5917.3861   -145404.93   -139487.54   -139497.58    -26.84511     599495.9   -90.148786    365.03186    -355.4184   -241.09253    89.800616   -142.50584 
   33000    1439.7287    5954.9991   -145455.22   -139500.22   -139070.39     1150.705    598469.88    1363.7852    517.28772     1571.042    435.58193    134.83693   -751.08825 
   33100    1445.5291    5978.9909    -145509.8   -139530.81   -139678.44   -394.87531    599018.53   -864.93672   -127.64937   -192.03985    370.42442   -347.44488   -465.94312 
   33200    1426.3247    5899.5578    -145475.6   -139576.05   -139804.29   -610.26874    599232.86   -1069.3844   -449.24353   -312.17829   -461.61388   -416.07495   -138.03799 
   33300    1422.5854    5884.0913   -145477.48   -139593.39   -139670.15   -205.33106    598958.78   -612.88888   -373.65666    370.55235   -189.71775     41.14825   -773.43688 
   33400    1429.4007    5912.2805   -145507.72   -139595.44   -139345.97    668.29177    598066.51   -77.834036    1016.4495    1066.2599   -80.655033    700.21237   -130.78374 
   33500    1431.0387    5919.0557   -145518.87   -139599.82   -139400.96    532.60358     598193.5   -116.71592     1374.448    340.07861    44.044276    337.51826   -140.61928 
   33600    1429.9205    5914.4306   -145526.95   -139612.52   -139464.01    397.63902    598375.17    14.426611     162.3856    1016.1049   -35.132174   -255.88714   -253.75423 
   33700    1421.3677    5879.0547    -145519.4   -139640.35   -140070.83    -1150.868    599302.26   -1525.2656   -820.92729   -1106.4111   -197.26484   -558.61129    201.56757 
   33800    1417.8969    5864.6987    -145526.7      -139662   -139878.65   -579.71448    598753.72   -950.60297   -548.55905    -239.9814   -115.61753   -197.68938   -210.07965 
   33900    1422.3746    5883.2192   -145552.87   -139669.66   -139340.31    882.42567     597968.6    681.32236    658.15187    1307.8028   -120.26228    177.97251   -661.77531 
   34000    1428.9347     5910.353   -145581.73   -139671.37   -139202.01     1258.516    597530.58     1295.317    1056.2412    1423.9899    0.5869381    817.52948   -60.258851 
   34100    1420.1649    5874.0793   -145554.94   -139680.86   -140153.52   -1264.3157     598972.3   -1629.9151   -731.47209   -1431.5599   -588.02944     704.9892   -253.49476 
   34200    1413.9875    5848.5285   -145555.92   -139707.39   -140128.39    -1125.985    599040.15   -1741.0446   -517.66828   -1119.2422   -181.65934    407.34132    2.0563999 
   34300    1408.0983    5824.1697   -145574.48   -139750.31   -139573.88    472.79596    597854.93    333.98255    677.40517    407.00015   -200.59449   -8.7266493     89.27452 
   34400    1405.2663    5812.4559   -145583.07   -139770.62    -139481.4    775.47478    597531.56    683.45834    835.71862    807.24737   -70.273837    115.86452   -10.323466 
   34500    1409.6818    5830.7195   -145603.41   -139772.69   -140100.67   -877.66379    598721.65   -919.79996   -659.11472   -1054.0767   -39.486813   -300.78492   -92.916624 
   34600    1405.3938    5812.9835   -145581.85   -139768.87   -140313.56   -1457.0929    598928.91   -1296.5208   -1429.3952   -1645.3629    65.370927   -673.68222    349.59286 
   34700    1405.6328    5813.9719    -145576.8   -139762.83   -139545.42    582.63068    597837.84    1188.5626    72.895586    486.43381   -161.30152   -417.99909   -743.20307 
   34800    1414.7341    5851.6167    -145604.5   -139752.88   -139296.62    1223.5021       597469    1085.4014    1418.6137    1166.4911   -88.623312    210.05907    59.522467 
   34900    1412.6769    5843.1078   -145587.97   -139744.86   -139884.24   -373.10371     598521.9   -876.58979   -324.80719    82.085855   -620.61138   -332.35005   -679.41324 
   35000    1411.8601    5839.7294   -145583.13    -139743.4    -140165.3   -1128.6145     598927.1   -1084.0134   -1561.3404   -740.48966   -498.34273   -49.146757   -318.02529 
   35100    1411.8959    5839.8771   -145608.15   -139768.27   -139725.98    113.25027    598322.63    237.09384   -134.85315     237.5101   -508.05268    -159.4271   -337.08667 
   35200     1399.431    5788.3202   -145609.25   -139820.93   -139615.14    551.39817     597980.3    1301.7271   -248.63453    601.10197    174.94676   -229.30077   -286.58132 
   35300    1405.3178    5812.6691   -145655.81   -139843.14   -139767.95    201.58736    597643.23    560.73881    267.08734   -223.06408    341.98675   -104.12502   -88.331375 
   35400    1403.5069    5805.1788   -145660.21   -139855.03   -139877.88   -61.224996    597895.04    173.35012   -327.74013   -29.284978    55.929517    60.209293     125.1604 
   35500    1406.7043     5818.404   -145687.31   -139868.91   -139771.11    262.18722    597621.33   -30.278873    1513.8525     -697.012    458.82567    216.64356   -150.54251 
   35600    1397.4742    5780.2263   -145671.11   -139890.88   -140145.93   -683.25026    598076.27   -964.51965   -276.13291   -809.09822   -164.78549   -331.41597    159.87366 
   35700    1390.4301    5751.0905   -145660.31   -139909.22   -139712.04     528.6924    597570.92    805.41209    436.71396    343.95114   -68.794492    80.792765   -411.84691 
   35800    1402.0106    5798.9898    -145721.4   -139922.41   -139536.87    1034.8065    596920.14    1336.3793    570.30445    1197.7357   -79.265141   -38.517316    169.37602 
   35900    1398.1483    5783.0146   -145722.53   -139939.51    -140192.1    -676.6431    598080.76   -1090.5157   -267.95049   -671.46311    139.56809   -495.99814   -238.89137 
   36000    1393.6894    5764.5718   -145724.52   -139959.94   -140372.09   -1103.7304     598267.2   -647.32915   -1256.6348   -1407.2272   -401.67499   -271.00932   -339.09768 
   36100    1390.4037    5750.9814    -145734.1   -139983.12   -139452.94    1423.5836    596691.92    1179.9636    1141.7262    1949.0611    602.42864   -240.91943   -467.16686 
   36200    1395.2407     5770.988   -145776.58   -140005.59   -139631.94    1003.1975    596746.87    956.90062    733.63703     1319.055   -269.39097   -181.78318    298.24067 
   36300    1389.9884    5749.2635   -145776.04   -140026.78   -140448.42      -1129.5    598092.37   -1106.0907   -1634.8089   -647.60034   -216.77915   -342.68819    556.43778 
   36400    1384.3187    5725.8126   -145771.13   -140045.32   -140384.45   -908.81668     597872.3   -1539.4877   -768.05599   -418.90629    152.30362   -312.26241    162.03723 
   36500    1373.2687    5680.1076   -145737.06   -140056.95   -139799.49    690.82369    597101.11    588.60723    598.13581    885.72805   -218.18189    16.927027   -109.97374 
   36600    1385.8683    5732.2219      -145784   -140051.78   -139766.92    764.71568    596817.29    386.49306    500.68074    1406.9732   -355.43983    145.04417    225.67313 
   36700    1384.1685    5725.1912   -145776.29    -140051.1   -140393.27    -917.0373    597805.89   -1101.2368   -1389.7308   -260.14427   -448.26581   -296.72346    521.52072 
   36800    1383.8051    5723.6884      -145780   -140056.32   -140541.43   -1299.3127     598196.2     -1490.28   -1365.8307   -1041.8273    11.682297   -282.37452  -0.10655288 
   36900    1378.1602    5700.3398   -145777.36   -140077.02   -140089.24   -32.787449    597221.08    473.33406   -776.03187    204.33546    341.72761   -244.19088   -120.55177 
   37000    1378.2305    5700.6304   -145804.53    -140103.9   -139725.27    1017.0469    596468.15    819.04839    1209.7621    1022.3301   -414.50185   -399.09614    342.87506 
   37100     1376.327    5692.7574   -145821.38   -140128.62    -140085.3    116.28372    596880.34   -67.365858   -50.606792    466.82381      337.068   -426.65461    138.06509 
   37200    1376.7618    5694.5558   -145840.25    -140145.7   -140529.93   -1030.0702    597638.73   -1340.9244   -1333.2882   -415.99813    174.31512   -409.92686   -88.913855 
   37300     1368.996     5662.435    -145822.5   -140160.06      -140179   -50.812435    597206.48     21.09858   -247.61489    74.079009   -124.60986   -375.58752   -409.98012 
   37400    1376.0789    5691.7311    -145864.4   -140172.67   -139897.39     739.2732    596592.15    623.89278    743.14094    850.78587    307.11484    -161.0623    189.30734 
   37500    1379.7361    5706.8581   -145896.04   -140189.19   -139978.85    564.91634    596534.23    611.40548     675.2185    408.12506     743.6531   -129.75738    420.65344 
   37600    1372.5029    5676.9401   -145889.92   -140212.98   -140339.84   -340.42099    597026.13   -573.42659   -325.77125   -122.06512    208.18567   -222.38706   -114.97829 
   37700      1369.58    5664.8505   -145897.12   -140232.27   -140459.59   -609.87221    597165.57   -276.42499   -445.54084   -1107.6508    274.92464   -377.21334   -237.82487 
   37800    1373.2798    5680.1536   -145920.17   -140240.02   -139769.74    1264.4823    595870.53    1411.6551    1391.9884    989.80349    70.052954    11.198614   -426.00428 
   37900    1375.8619    5690.8335   -145944.12   -140253.29   -139980.11    734.15838    596167.35    1368.9518    929.24029   -95.716919    216.87427    49.617867    137.12313 
   38000    1366.5007    5652.1137   -145924.55   -140272.44   -140903.18   -1690.7217    597703.52   -1825.6292   -1500.2846   -1746.2513    41.702878   -46.752277   -223.13324 
   38100    1360.5755    5627.6063    -145915.5   -140287.89   -140525.94   -638.95006    596914.81   -501.83164    -551.3362   -863.68232    160.71748    279.65527   -417.24541 
   38200    1359.4618    5622.9994   -145925.11   -140302.11   -140035.11    717.70768    596032.98    1251.7143    303.32461    598.08416   -14.830329   -128.79397   -761.73105 
   38300    1360.1774    5625.9593   -145944.76    -140318.8    -140194.1    335.08061    596269.29    587.40932   -307.81886    725.65137    216.81515   -219.05585     15.96345 
   38400    1362.1769    5634.2299   -145970.17   -140335.94   -140526.98    -513.1479     596481.8    -806.3255   -617.05296   -116.06525    171.30797    147.31807   -297.71541 
   38500    1360.1713    5625.9344    -145985.7   -140359.77   -140546.18   -500.75049    596424.75   -206.93412   -415.16956   -880.14779    206.37917    117.77111    110.65333 
   38600    1363.9721     5641.655   -146021.41   -140379.75   -139915.59    1249.1511    595339.02    1205.0896    1131.2795    1411.0842    140.29972    -39.75657    78.773664 
   38700    1357.9867    5616.8983   -146004.69   -140387.79   -140066.38    864.53503    595649.94    932.07142    896.41279    765.12088    92.645043   -162.02322   -167.85394 
   38800    1361.7028    5632.2688   -146018.33   -140386.06      -140388   -5.2178612    596157.47    351.19487    252.20881   -619.05726    515.26213   -404.99784    50.032643 
   38900     1355.393    5606.1701   -145995.49   -140389.32   -140631.88    -651.4772     596529.5    153.89755   -659.26207   -1449.0671   -227.52654   -334.30349   -198.00426 
   39000    1352.5261    5594.3121   -145992.89   -140398.58   -140411.32   -34.256929    596191.38    623.70859   -454.01535   -272.46403    31.825808   -294.28705    -85.89482 
   39100    1357.5342    5615.0268   -146030.63    -140415.6   -139943.02    1271.7551    595363.38    1971.7011    632.93075    1210.6336   -75.627343   -307.22402    234.50127 
   39200    1350.6506    5586.5549   -146030.91   -140444.35   -140220.95     600.9431    595621.98    625.95018    1061.5479    115.33126   -182.34693    357.19527   -184.62834 
   39300    1344.9256    5562.8753   -146029.32   -140466.45   -140955.41   -1313.0296    596635.71   -1088.4051   -1232.8614   -1617.8223   -164.07482    57.626484    334.31596 
   39400    1346.5505    5569.5961   -146046.43   -140476.83   -140837.96   -969.93751    596529.69   -954.44518   -935.56707   -1019.8003   -152.86907    266.98253    109.26595 
   39500    1344.3625     5560.546   -146046.28   -140485.73    -140343.4    382.79213    595715.63    50.596773    426.63022    671.14939   -134.76899    7.1396199     411.4796 
   39600    1346.8513      5570.84   -146065.27   -140494.43   -140166.74      881.682    595470.24    976.80646    656.90485    1011.3347   -166.20496   -388.18335    30.442534 
   39700    1347.4814    5573.4464   -146084.77   -140511.32   -140418.44    249.94451    595373.78     372.2829     197.9816    179.56904   -77.689261   -115.18407      98.4819 
   39800    1342.8252    5554.1873   -146090.67   -140536.48   -141067.83   -1427.3828    596420.53   -2074.9667   -1092.9076    -1114.274    -365.9247     170.8937    31.841893 
   39900     1340.849    5546.0132   -146107.73   -140561.72   -141011.57   -1208.8224    596238.16   -1206.2203   -1831.3607   -588.88614   -274.09587    595.36531   -57.007957 
   40000    1335.5446    5524.0734   -146104.28    -140580.2   -140238.07    921.16339    595076.76    645.22161    1206.9911    911.27748   -117.04408    196.58527   -604.30514 
   40100    1347.1533    5572.0893   -146160.69    -140588.6   -140110.93    1287.4494    594449.68    982.70679    1228.1203    1651.5211    20.754423    307.57721    383.58426 
   40200    1336.4727    5527.9122   -146128.12    -140600.2   -140579.29     56.25163    595513.72    442.64921   -357.27802    83.383702     148.1998    371.99432    267.28609 
   40300    1339.4251    5540.1241   -146152.19   -140612.07   -140814.54   -544.69269     595560.9   -109.08834   -782.02771   -742.96201   -223.47951    261.60978   -10.355092 
   40400    1329.8918    5500.6922   -146130.14   -140629.45   -140447.78    489.05948     595139.7    1031.0484    613.28182   -177.15176   -188.05367   -212.95401   -221.04251 
   40500    1328.1008    5493.2846   -146141.57   -140648.29   -140484.47    441.08973    595050.13    265.98315     515.6712    541.61485   -119.77914   -715.15207   -119.70596 
   40600    1332.5898     5511.852   -146179.38   -140667.52   -140925.59   -694.17792    595619.65   -754.60134   -827.21552   -500.71689    82.969189    40.351525    171.76394 
   40700    1331.9041    5509.0154   -146194.92   -140685.91   -141111.19   -1143.5278     595857.7   -1426.2786   -1127.6492   -876.65548   -379.26058    168.92723    821.67074 
   40800    1326.8041    5487.9209   -146187.27   -140699.35    -140522.5    476.42214    594717.65    749.65287    299.33519    380.27836   -238.48738     -26.2805    101.33516 
   40900     1322.573    5470.4204   -146177.48   -140707.06   -140206.54    1348.9994    594460.22    1752.6757    865.55183    1428.7706    98.432811     33.15061   -369.53567 
   41000    1335.7127    5524.7687    -146238.8   -140714.03   -140761.86   -128.79379    595094.35   -527.19806   -731.74664    872.56333    29.930991   -416.18702    353.70149 
   41100    1326.5826    5487.0048   -146215.55   -140728.54   -140752.02   -63.218068    595179.51   -29.141816     15.67469   -176.18708   -236.22927    55.708927   -137.46079 
   41200    1327.8284    5492.1578      -146240   -140747.84   -140296.49    1217.0294    594178.26    767.60608     1602.634     1280.848   -261.74476    297.98492   -143.53218 
   41300    1324.9985    5480.4528   -146257.74   -140777.28   -140757.77    52.563829    594760.87    23.542866   -24.825539    158.97416   -139.67723 -0.033659682   -122.68143 
   41400    1316.7167    5446.1976   -146249.28   -140803.08   -141487.81   -1841.5124    595730.88   -2211.0176   -1825.3182   -1488.2014    286.09046   -2.3789003    51.087971 
   41500    1319.2643    5456.7348   -146276.98   -140820.25   -140858.82   -103.90827    594740.05    -601.9505    435.80223   -145.57655   -280.91112    314.16108   -112.23627 
   41600    1321.0639    5464.1784   -146300.69   -140836.51   -140345.68    1324.1095    593910.36    1704.2618    1345.4226    922.64411   -528.60495    135.39806   -513.38845 
   41700    1320.3612    5461.2721   -146318.24   -140856.97   -140593.81    709.77672    594033.31    1046.6588    1106.8146   -24.143284   -886.20451    172.20714   -245.46882 
   41800    1322.8446    5471.5437   -146348.99   -140877.45   -141197.86   -862.97277    594867.84   -409.46688   -730.60678   -1448.8447    27.072722    703.59709    125.51093 
   41900      1314.79    5438.2282   -146340.82   -140902.59   -140921.62   -51.277278    594582.37   -182.08074    178.62528   -150.37637   -48.813164    217.61277   -583.01559 
   42000    1310.6952    5421.2916   -146348.34   -140927.05   -140337.11    1592.7808    593419.68    2040.4133    1106.4501     1631.479    179.03225    15.155066    120.30757 
   42100    1308.0671    5410.4213   -146357.33   -140946.91   -140933.88    35.100454    594466.16     214.7702   -220.50773     111.0389    222.95254     234.4894   -106.92881 
   42200    1309.6383    5416.9199   -146376.35   -140959.43   -141334.65    -1010.319    595024.05   -1170.5733   -1470.8095   -389.57422    11.573764     374.9777   -43.800124 
[...]
  803600    298.58501    1235.0059   -153110.36   -151875.35   -151807.36    193.86798    561879.44    78.964139    36.294805      466.345    -315.1636   -47.079105    32.541829 
  803700    298.96051    1236.5591    -153111.9   -151875.34   -151771.37    296.52889    561793.75    56.636887    332.67126    500.27854   -403.95124   -140.47031   -265.20046 
  803800    298.10507    1233.0208   -153106.83   -151873.81   -151699.19    497.98727     561802.8    353.11211    243.72607    897.12363   -314.58182   -427.63602   -160.91812 
  803900    301.64979    1247.6825   -153117.89   -151870.21   -151608.14    747.63411    561602.14    735.07471    480.33181    1027.4958   -491.39687   -421.75218    139.58658 
  804000      301.854    1248.5271   -153115.24   -151866.71   -151634.83    661.45022    561665.98    519.08871    631.51667    833.74528   -217.00164   -162.94805   -20.870467 
  804100    300.08758    1241.2208   -153104.16   -151862.94   -151717.78    413.98607     561793.6    190.72663    267.03193    784.19967    -66.30651    45.830559   -193.84682 
  804200    302.22614    1250.0664   -153106.58   -151856.51   -151741.19    328.85572     561854.5    175.70521    280.91317    529.94876   -84.679582   -163.21088   -318.27906 
  804300    301.29356     1246.209   -153096.78   -151850.57    -151722.1    366.36097    561848.58    218.73664    116.21913    764.12715   -317.45664   -107.87643   -278.28014 
  804400    304.20737    1258.2611   -153104.93   -151846.67   -151683.12    466.39396    561847.59    468.47207    356.72465    573.98515   -189.79569   -28.211815   -91.857691 
  804500    303.75825    1256.4035   -153104.54   -151848.14   -151626.11    633.31838    561691.83     652.2404    651.99398    595.72078   -205.33837   -344.00712   -148.13154 
  804600    302.05243    1249.3478   -153108.57   -151859.23   -151573.79    814.34849    561576.19    787.63411    810.41387     844.9975   -199.66477   -321.17531   -280.46695 
  804700     301.9293    1248.8386   -153116.26   -151867.42   -151560.81    874.72948    561590.43    638.70159    875.41583     1110.071   -81.950118    13.367752   -115.02773 
  804800    298.21062    1233.4574   -153105.16    -151871.7   -151605.68    758.78821    561692.02    609.87634    585.17636    1081.3119   -257.77479   -158.12678   -165.60592 
  804900    299.74852    1239.8185   -153113.18   -151873.36   -151659.37    610.43718    561667.59    557.12957    350.30225    923.87971   -210.70553   -163.05325    31.376929 
  805000    299.11256     1237.188   -153111.37   -151874.18   -151718.97    442.61477    561815.93    347.84864    204.61609    775.37958   -209.70376   -272.65958   -161.01249 
  805100     297.9342    1232.3141   -153107.15   -151874.84   -151748.36    360.69849    561805.92    567.88241    192.50339    321.70969   -278.62298   -245.07715   -375.14247 
  805200    298.86483    1236.1633      -153109   -151872.84   -151746.53    360.21897    561818.34    322.38376    315.29064    442.98251   -417.36262   -44.358351   -233.27228 
  805300    299.20572    1237.5733   -153106.15   -151868.58    -151703.3    471.37018    561759.09    431.01867    395.94249    587.14939   -353.70037   -237.33364   -148.40193 
  805400    300.15728    1241.5092   -153104.91    -151863.4   -151653.32    599.19364    561737.13    383.02033    235.76712    1178.7935   -62.692701   -314.13607   -143.47644 
  805500    301.79808    1248.2958   -153107.95   -151859.65   -151697.35    462.84006    561844.12    164.70795     665.1097    558.70253   -103.86817   -19.201588   -63.962703 
  805600    299.09225     1237.104   -153096.18   -151859.08   -151778.78    228.88958    562061.25    206.62968    102.00597    378.03309    -174.2298   -37.503602   -114.86737 
  805700    302.99402    1253.2425   -153112.68   -151859.43   -151816.29    123.00137    561980.52    31.020202   -89.383031    427.36694   -231.68956   -351.90697   -277.18074 
  805800    298.39168    1234.2063   -153099.57   -151865.37    -151846.9    52.630283    562034.89   -115.62568   -323.54564    597.06217   -190.35602   -260.65156   -249.71436 
  805900    298.67347    1235.3718   -153110.17    -151874.8   -151872.58    6.3255209    562014.34    59.841201      -381.51    340.64537   -369.70231    -199.6333   -289.30091 
  806000    298.53801    1234.8115   -153115.29   -151880.48   -151903.39   -65.332019    562009.35    -106.0641   -362.14517    272.21321   -348.42853    25.905517   -173.32852 
  806100    297.52919    1230.6389   -153112.52   -151881.88   -151948.39   -189.55095    562135.53    -359.4795   -312.85652    103.68316   -446.09272    -51.98388    -276.8725 
  806200    299.03897    1236.8836   -153116.93   -151880.05    -151979.3   -282.90449    562107.32   -313.07822   -439.36274   -96.272515   -287.49202   -296.20046   -298.61806 
  806300    299.45887    1238.6204   -153114.75   -151876.13   -151977.41   -288.63061    562197.46   -423.46675   -448.69995    6.2748533   -117.78318   -334.82151    -197.6747 
  806400    300.06565    1241.1301   -153111.79   -151870.66   -151962.64   -262.12751    562195.95   -563.87885   -401.05898    178.55531   -221.03903   -117.78029   -63.255841 
  806500    299.15858    1237.3783   -153104.18    -151866.8    -151953.7   -247.69028    562105.38   -566.26686   -455.83342    279.02943   -338.62802    8.3706727   -41.165409 
  806600    301.62252    1247.5697   -153112.21   -151864.64   -151932.92     -194.607    562128.76    -461.5611   -272.82484    150.56496   -337.84281   -204.93931   -130.55231 
  806700    298.17808    1233.3228    -153098.3   -151864.98   -151919.88   -156.49401    562134.12   -346.97874   -59.013561   -63.489721   -163.08673     -116.819   -147.64616 
  806800    299.99039    1240.8189   -153105.61   -151864.79   -151919.79   -156.75635     562146.3   -364.66709   -78.793896   -26.808064   -107.44891   -294.01196   -182.33848 
  806900    299.78676    1239.9766   -153105.97      -151866   -151935.71   -198.69372    562135.56   -391.57998    54.494555   -258.99574   -129.89459    59.676886   -58.680969 
  807000    301.69781    1247.8811   -153115.91   -151868.03   -151991.89    -352.9734    562199.23   -667.26902   -511.85671    120.20555   -127.80957   -93.566918   -181.66149 
  807100    300.39888    1242.5085   -153113.24   -151870.73   -152079.21   -594.02098     562301.6   -739.44325   -800.93028   -241.68939   -433.41093   -84.155024   -86.534561 
  807200    298.91142     1236.356   -153108.78   -151872.43   -152155.97   -807.78169     562393.3   -838.23361   -733.11533   -851.99613   -315.03016   -154.44102   -292.37105 
  807300    297.96715    1232.4503   -153105.55    -151873.1   -152190.87   -905.09101    562500.99    -1145.949     -777.426   -791.89799   -182.31397    5.1394548   -192.59932 
  807400    298.69542    1235.4626   -153108.28   -151872.81   -152147.05   -781.22451    562417.43   -889.59042   -912.00846   -542.07464   -247.66208   -171.17277   -185.00808 
  807500    299.27462    1237.8583   -153109.89   -151872.04   -152075.72   -580.38561    562269.25    -494.1731    -649.7614   -597.22233    -257.4039   -443.16524   -64.574635 
  807600    299.69101    1239.5806   -153110.22   -151870.64   -152028.81   -450.73773    562229.62   -420.88429   -753.69731   -177.63159   -278.49339   -345.66964   -227.84403 
  807700    300.07699    1241.1771   -153109.45   -151868.27   -152007.11   -395.64835    562222.99   -403.77688   -509.42912   -273.73906   -172.56641   -170.68348   -179.35871 
  807800    300.48709    1242.8733   -153108.66   -151865.79   -152011.88   -416.28356    562260.42   -665.15288   -451.83697   -131.86082   -188.89323   -238.24592   -357.43061 
  807900    300.15113    1241.4837   -153105.85   -151864.37   -152052.47     -535.976    562275.35   -838.93029   -366.76433   -402.23337   -279.08706   -119.52177   -143.30941 
  808000    300.76843     1244.037   -153107.96   -151863.93   -152069.44   -585.53041     562341.6   -629.43661   -776.92701   -350.22761   -172.49767    75.541896   -109.81336 
  808100    300.87773    1244.4891   -153109.59    -151865.1   -151986.53   -346.06033    562181.07   -478.43989   -444.83951   -114.90158    22.180033   -64.277644   -142.52858 
  808200     301.3364    1246.3862   -153114.75   -151868.36   -151925.19   -161.96827    562109.27   -451.67082   -113.97321    79.739201   -397.90261    -269.9328   -159.29392 
  808300    300.78555    1244.1078   -153118.34   -151874.24      -151907   -93.388493    562011.52   -225.34271   -241.66502    186.84225   -525.59202    -232.5223   -329.21974 
  808400    299.18796    1237.4999   -153117.51   -151880.02   -151890.95   -31.185143    561937.83   -73.413518   -277.52864    257.38673   -215.54705   -158.00437   -368.14226 
  808500    296.78902    1227.5774   -153109.73   -151882.15   -151870.91    32.040809    562022.81   -145.85099    49.238846    192.73457   -174.64846    174.62398   -212.37558 
  808600    298.62869    1235.1866    -153115.2   -151880.01   -151829.91    142.84032     561908.8   -150.14829    94.162977    484.50627   -234.08865   -120.18327   -198.68242 
  808700    299.18012    1237.4674   -153112.13   -151874.66    -151781.2    266.49797    561848.63    147.60324     262.0783    389.81237    110.72603   -167.11689   -83.037941 
  808800    301.56659    1247.3383   -153114.81   -151867.47   -151744.56    350.50841    561828.19    199.09969    277.88732    574.53822   -165.64321   -353.36839   -164.29173 
  808900    299.99358    1240.8321   -153104.74   -151863.91   -151744.17    341.47279    561828.99    69.378968    240.96792    714.07148   -250.16842   -253.69496   -278.60409 
  809000    301.02491    1245.0978   -153108.18   -151863.08    -151762.9    285.67085     561905.7    140.72085    98.862033    617.42967   -245.65705   -227.14737   -47.549947 
  809100    300.98758    1244.9434   -153109.51   -151864.56   -151780.95     238.3943    561949.65    18.242994    325.20888    371.73102   -344.34915   -141.52973   -62.823632 
  809200    300.88774    1244.5305    -153110.8   -151866.27   -151790.13    217.11052    561895.17   -161.31733    325.20046    487.44844   -213.05428   -86.087472   -104.92114 
  809300    299.63833    1239.3627   -153108.64   -151869.28   -151773.05    274.37028    561890.51    63.061884    310.57746     449.4715   -203.48744   -51.103069   -224.55749 
  809400    300.75337    1243.9747   -153116.29   -151872.32   -151680.61    546.80896    561708.02    458.56533    532.40497    649.45659   -8.8644703    -138.2076    102.66466 
  809500    298.22133    1233.5017   -153109.13   -151875.63   -151558.57    904.54215    561589.97    588.33304    1156.3664    968.92698    -337.4567   -182.28723   -320.85984 
  809600    300.13369    1241.4116   -153117.81    -151876.4   -151547.32    938.97273    561506.89    709.38429     839.8141    1267.7198   -419.80139   -190.95932   -126.19525 
  809700    301.56734    1247.3414   -153120.24    -151872.9   -151620.08    721.22519    561637.77    583.51776    443.36682     1136.791   -96.077167   -76.600479   -153.23049 
  809800    300.93971    1244.7454   -153110.84   -151866.09   -151667.31    567.01378    561691.64    484.99354    470.32507    745.72275   -211.48727   -207.16513   -105.71403 
  809900    301.04357     1245.175   -153105.01   -151859.83   -151685.59    496.94513    561771.63    502.04356    382.99339    605.79844   -258.95015   -5.7437944   -9.9864969 
  810000    301.43446    1246.7918   -153103.56   -151856.77   -151671.46    528.47464    561813.75    442.84341    480.61699    661.96352   -93.240316   -118.71929   -170.28945 
  810100    302.15544    1249.7739    -153107.5   -151857.73   -151617.56    685.05206    561687.89      603.217    678.08577    773.85341   -354.38332   -215.69544   -95.848714 
  810200    301.25135    1246.0345   -153107.64   -151861.61   -151549.21    891.20484    561616.64     603.4981    841.74666    1228.3698   -202.38067   -206.61071   -285.05317 
  810300    300.18542    1241.6255   -153109.37   -151867.75   -151580.62    819.16874    561586.29    904.96868      699.472    853.06553   -270.38962    84.263864   -225.53228 
  810400    300.38091    1242.4341   -153114.83    -151872.4   -151719.68    435.53133    561788.67    468.63277    310.59208    527.36915    -39.82373   -157.06155   -300.17672 
  810500    298.46817    1234.5227      -153109   -151874.48   -151787.91    246.83192    561906.05    377.02432   -148.57234    512.04379   -211.05823   -312.62213   -13.523239 
  810600    299.64927    1239.4079   -153113.59   -151874.18   -151805.91    194.64512    561904.08    319.18933   -133.09393    397.83997   -294.56039   -177.82069   -258.56592 
  810700    300.45694    1242.7486   -153115.92   -151873.17   -151809.24    182.29655    561878.72    207.06727    -205.8433    545.66569   -205.06709   -27.506992   -123.05986 
  810800    299.67564     1239.517   -153110.82    -151871.3   -151822.02    140.51653    561974.82    178.85094   -288.27764    530.97628   -272.65215   -374.42619   -112.76478 
  810900    298.87804     1236.218   -153104.93   -151868.71   -151841.88    76.489265    562004.34     140.3578   -131.83083    220.94083   -346.92404   -276.74146   -248.55072 
  811000     299.0226    1236.8159   -153101.88   -151865.06   -151871.54   -18.461215    562041.76    65.238565   -297.95979    177.33758   -273.31652   -303.87689   -317.26961 
  811100    301.17418    1245.7152   -153106.82   -151861.11   -151897.52   -103.79181    562054.23   -104.91304   -511.97335    305.51097   -332.41777   -181.29086   -306.68983 
  811200    300.89086    1244.5434   -153103.16   -151858.62   -151915.29   -161.53922    562087.52     39.21299   -337.57797   -186.25266   -228.55334   -69.317671   -271.40891 
  811300    301.90885     1248.754   -153106.33   -151857.58   -151924.39   -190.42525     562118.9   -527.37246   -218.76616    174.86286   -269.73443   -346.39338   -277.91048 
  811400    301.01537    1245.0584   -153106.01   -151860.95   -151929.94    -196.5907     562206.8   -413.46607   -305.98155    129.67552    56.918245   -290.39279   -65.588092 
  811500    298.63183    1235.1996   -153104.56   -151869.36   -151951.75   -234.80061     562176.7   -232.20336    -395.9892   -76.209266   -235.01653   -245.67356   -76.047158 
  811600    298.51561    1234.7189    -153110.5   -151875.79   -152000.47   -355.29323    562250.96   -214.76853   -632.96461   -218.14655   -90.725573   -120.63938   -129.48519 
  811700    298.65576    1235.2986   -153113.97   -151878.67    -152108.2   -653.92987    562354.94   -892.08444   -924.00787   -145.69731   -335.43981   -135.51979   -194.86966 
  811800    296.21527    1225.2042   -153103.88   -151878.68   -152189.99   -886.72669    562492.22    -977.4677   -1086.9823   -595.73006   -303.14979   -116.70457    77.159121 
  811900    299.79535    1240.0121   -153115.42   -151875.41   -152136.59   -744.10359    562369.09   -768.64712   -686.83819   -776.82546   -77.642829   -308.30315    20.903925 
  812000    300.71631    1243.8214   -153115.58   -151871.76   -152065.09   -550.89838    562258.09   -558.36321   -588.52693   -505.80501   -203.13958    -116.4286   -44.020139 
  812100    300.24678    1241.8793   -153108.72   -151866.84   -152033.17   -473.97448    562251.16   -257.10442   -961.77264   -203.04638   -105.11216   -43.645485   -365.93722 
  812200    300.96658    1244.8566    -153105.7   -151860.84   -152039.98   -510.41074    562324.61   -519.52938   -900.06966   -111.63318    48.114541    13.891627   -250.31423 
  812300    299.24482     1237.735   -153095.79   -151858.05   -152081.96   -637.83556    562436.46   -515.95523   -994.29477   -403.25669   -161.29321   -166.40441   -277.38571 
  812400    301.79107    1248.2668    -153105.4   -151857.14   -152153.01   -842.80565    562459.08   -787.39257   -941.92209   -799.10229   -129.77323   -351.12108   -175.98591 
  812500     301.8781    1248.6268   -153107.27   -151858.64   -152204.41   -984.83034    562509.11   -760.17366   -1275.5678   -918.74961   -561.75652   -248.83457   -236.66863 
  812600    298.74329    1235.6606   -153097.86    -151862.2   -152131.66    -767.6061    562416.48   -844.94772   -889.24329    -568.6273   -362.58521   -299.06031   -86.742828 
  812700    301.68731    1247.8377   -153112.33   -151864.49   -151993.36   -367.22761    562210.02   -602.54436    -632.2975    133.15902   -141.00907    -278.3185   -167.76296 
  812800    298.81316    1235.9496   -153102.91   -151866.96   -151947.92   -230.74614    562113.07   -443.19097   -470.46574     221.4183    129.11496   -209.67325   -198.15171 
  812900    300.78331    1244.0985   -153111.62   -151867.52   -151949.89   -234.74626    562177.04   -314.51471   -375.09318   -14.630884   -141.99955   -204.31566   -68.582304 
  813000    298.74145     1235.653   -153104.54   -151868.89    -151961.2   -263.08959    562167.13   -508.87715   -390.22925    109.83764   -270.84786   -176.50474   -266.11567 
  813100    300.58529    1243.2795   -153112.91   -151869.63   -151984.48   -327.32928    562151.41   -338.12995   -558.88983   -84.968064   -241.20101   -274.37205   -272.32692 
  813200     299.9091    1240.4826   -153112.11   -151871.62   -151999.06   -363.14728     562219.1   -525.79953   -299.47444   -264.16785   -352.85218    30.933954   -269.98805 
  813300    297.40147    1230.1106   -153105.54   -151875.43   -151990.94   -329.21151    562176.31   -300.32643   -568.05786   -119.25023   -297.26748   -426.02477    5.3620226 
  813400    298.45051    1234.4496   -153113.42   -151878.97   -151952.36   -209.17284    562124.84   -259.78113    -500.2786    132.54121   -266.56776   -227.72124   -167.34408 
  813500    298.08193    1232.9251   -153114.34   -151881.41   -151915.41   -96.912258    562027.67    59.270063   -380.19806    30.191222   -631.04847   -280.35411   -170.12207 
  813600    299.67404    1239.5104    -153120.9   -151881.39   -151887.84   -18.390515    561938.91   -152.37272   -221.24204    318.44322    -264.5003   -339.76984   -388.88985 
  813700    300.02797    1240.9743   -153118.71   -151877.73   -151864.23    38.490165    562004.62   -256.07866    156.98472    214.56444   -156.91039   -17.582393   -193.91976 
  813800    300.04876    1241.0603   -153111.62   -151870.56    -151833.5    105.65766    561905.11   -21.750165    131.30125     207.4219   -27.077909   -97.355839   -356.95016 
  813900    298.10898     1233.037      -153098   -151864.96   -151769.78    271.40495    561879.36   -54.603781    296.21882    572.59981   -173.40087   -106.11092    54.262136 
  814000     300.8922    1244.5489   -153105.38   -151860.83   -151678.31    520.55296    561761.97    313.11254    270.10858    978.43777   -65.882661    -29.97097    116.23522 
Loop time of 439.943 on 32 procs for 50000 steps with 32000 atoms

Performance: 9.819 ns/day, 2.444 hours/ns, 113.651 timesteps/s
100.0% CPU use with 32 MPI tasks x no OpenMP threads

MPI task timing breakdown:
Section |  min time  |  avg time  |  max time  |%varavg| %total
---------------------------------------------------------------
Pair    | 341.4      | 360.93     | 389.16     |  68.0 | 82.04
Neigh   | 1.2105     | 1.3304     | 1.5478     |  10.4 |  0.30
Comm    | 35.947     | 64.188     | 83.905     | 160.7 | 14.59
Output  | 0.088349   | 0.09021    | 0.10053    |   0.9 |  0.02
Modify  | 10.133     | 10.941     | 11.577     |  11.8 |  2.49
Other   |            | 2.46       |            |       |  0.56

Nlocal:    1000 ave 1017 max 984 min
Histogram: 3 3 2 6 2 3 7 2 2 2
Nghost:    3693 ave 3735 max 3655 min
Histogram: 2 2 2 7 2 7 5 3 0 2
Neighs:    73366.6 ave 75783 max 71052 min
Histogram: 1 1 4 7 5 4 4 2 2 2

Total # of neighbors = 2347732
Ave neighs/atom = 73.3666
Neighbor list builds = 233
Dangerous builds = 0
unfix 1



Total wall time: 1:57:33
