LAMMPS (12 Dec 2018)
clear

boundary        p p p
units           metal
atom_style      atomic

read_data       Ag10.in.dat
  orthogonal box = (-32.5 -32.5 -32.5) to (32.5 32.5 32.5)
  2 by 4 by 4 MPI processor grid
  reading atoms ...
  16000 atoms
mass            1  91.22
mass            2  63.55
mass            3  107.87



pair_style      eam/alloy
pair_coeff      * * ZrCuAg.lammps.eam Zr Cu Ag

timestep       0.002

thermo_style    custom step time temp ke pe etotal enthalpy press vol pxx pyy pzz pyz pxz pxy
thermo          200

#Equilibracioan 1.5 ns
fix             1 all npt temp 1900 1900 0.2 iso 0.0 0.0 0.2
run    375000
Neighbor list info ...
  update every 1 steps, delay 10 steps, check yes
  max neighbors/atom: 2000, page size: 100000
  master list distance cutoff = 8.5
  ghost atom cutoff = 8.5
  binsize = 4.25, bins = 16 16 16
  1 neighbor lists, perpetual/occasional/extra = 1 0 0
  (1) pair eam/alloy, perpetual
      attributes: half, newton on
      pair build: half/bin/atomonly/newton
      stencil: half/bin/3d/newton
      bin: standard
Per MPI rank memory allocation (min/avg/max) = 3.093 | 3.094 | 3.095 Mbytes
Step Time Temp KinEng PotEng TotEng Enthalpy Press Volume Pxx Pyy Pzz Pyz Pxz Pxy 
       0            0            0            0   -73211.217   -73211.217   -66299.811    40321.502       274625    40341.143    40394.122     40229.24    48.331332    58.974518   -130.59285 
     200          0.4    550.10697    1137.6394   -74100.743   -72963.104   -72984.212   -118.74222     284812.6   -120.72331   -218.05147   -17.451889    -160.8143    732.55039    609.20614 
     400          0.8    709.39028    1467.0425    -73782.16   -72315.117    -72234.54    449.82958    286993.41    229.17189     393.9301    726.38674     180.0896    977.00316    551.70665 
     600          1.2    906.42441    1874.5157   -73311.136    -71436.62   -71316.127    666.14203    289805.05    575.86103    1014.1963    408.36881    648.61923   -560.03398   -101.75734 
     800          1.6    1134.3949    2345.9662   -72693.485   -70347.519   -70493.941   -798.27033    293878.43   -1201.7234   -786.71529    -406.3723    -328.1775   -352.58239    39.498657 
    1000            2     1393.186    2881.1547   -71979.463   -69098.308   -69273.273   -940.31862    298116.39   -1284.9035   -523.05312   -1012.9993    -753.2167    629.47233    332.35854 
    1200          2.4    1627.7089    3366.1559   -71172.056     -67805.9   -67712.279    496.00356    302412.28    657.88887    611.09988    219.02192    847.11662   -1015.2769   -647.43546 
    1400          2.8    1828.2872    3780.9583   -70432.521   -66651.562   -67147.578   -2583.2193     307641.4   -2087.3952   -3020.9939   -2641.2688    598.69937   -216.24838    104.11018 
    1600          3.2    1933.5589    3998.6638   -69958.041   -65959.377   -65900.407    305.09605    309674.04   -101.39243   -243.25785    1259.9384    410.44568   -259.41632   -76.925807 
    1800          3.6    1893.6508    3916.1324   -69975.846   -66059.714   -66297.412   -1229.3219     309793.1   -1655.3325   -1225.9327   -806.70051    85.878578    250.60995    17.324831 
    2000            4    1885.2825    3898.8266   -70146.204   -66247.378   -66143.007    542.53806    308217.57    134.14867   -136.54746     1630.013   -68.669552    739.19159    1062.0413 
    2200          4.4    1906.9221    3943.5779   -70088.986   -66145.408    -66301.79   -810.41683    309163.77    224.07196   -1909.7054   -745.61703    172.91508     104.3798    522.50426 
    2400          4.8    1905.9297    3941.5257   -70024.075   -66082.549   -65963.392    617.96497    308933.56    4.0704357    466.64194    1383.1825   -77.894307    150.47735   -999.46391 
    2600          5.2    1881.9598     3891.955   -70039.851   -66147.896   -66030.922    607.24017    308632.28     1387.676   -225.56888    659.61339   -247.52518   -503.75417    25.423864 
    2800          5.6      1900.48    3930.2554   -70045.263   -66115.007    -65808.58    1591.1218    308555.81    917.64846    2082.2098    1773.5071   -1012.7083    58.246444    499.39758 
    3000            6    1876.2249    3880.0952   -70031.368   -66151.272   -66148.338    15.212842    309006.12    414.26293    202.50372   -571.12812   -245.79827   -353.32879    166.60438 
    3200          6.4    1904.1802    3937.9076   -70103.385   -66165.477   -66154.732    55.794603    308541.05    95.965436    541.07813   -469.65975   -107.16608    64.369167    273.72809 
    3400          6.8    1924.5747     3980.084   -70079.494    -66099.41   -66213.263   -589.96177    309193.56    101.51329   -779.61011   -1091.7885   -254.33405   -291.42435   -83.863933 
    3600          7.2      1932.26    3995.9776   -70137.805   -66141.827   -65994.266    766.12887    308590.01    1220.4966   -5.0905553    1082.9806    599.62787    257.06151   -738.39875 
    3800          7.6     1885.385    3899.0384   -70115.782   -66216.743   -66042.723      904.304    308316.28    950.99003    272.36985    1489.5521    -96.33146    281.38863    86.256142 
    4000            8    1924.8121     3980.575   -70031.519   -66050.944   -66059.864   -46.210155    309242.89    940.13823   -517.09164   -561.67705    -642.2744   -183.26449    -766.5852 
    4200          8.4    1914.5109    3959.2718   -70085.782    -66126.51   -65919.027    1077.6683    308466.53    957.48951    971.80376    1303.7116   -272.89754        245.2   -383.30359 
    4400          8.8    1879.2913    3886.4365   -70155.096   -66268.659   -66485.701   -1126.0812    308803.71   -764.06623   -1725.8476   -888.32978   -111.86867    221.77953   -699.76575 
    4600          9.2    1897.7031    3924.5128   -70101.091   -66176.579   -66129.745    243.21014    308520.14    657.72878   -392.99583    464.89747   -1164.7665    635.75029    602.21018 
    4800          9.6    1916.4308    3963.2423   -69973.466   -66010.224   -65668.536    1771.6242    309006.57    3262.0929    793.56115    1259.2187    1157.7834   -510.77974    200.44876 
    5000           10    1890.6435    3909.9132   -70021.592   -66111.679   -66615.847   -2604.2277    310174.82    -2028.831   -2580.3417   -3203.5104    299.88126   -447.47415   -690.66795 
    5200         10.4    1882.8162    3893.7262   -70128.924   -66235.197   -66215.199    103.78778    308711.25    136.66133   -903.46755    1078.1696   -205.39023   -626.76399     211.6397 
    5400         10.8    1900.3469    3929.9803   -70031.384   -66101.404   -66083.921    90.572029    309259.15   -240.25199    474.00791    37.960174   -251.41402    1026.9869   -207.96906 
    5600         11.2    1901.1297     3931.599   -70042.042   -66110.443     -66378.6   -1388.0658    309519.45   -2466.1776   -406.16183   -1291.8581    208.28013   -560.88035   -550.56015 
    5800         11.6    1892.7065    3914.1796   -70112.974   -66198.795   -66103.059     497.1845    308506.46    687.65501    86.423017    717.47549   -152.37405   -1222.4993     749.6111 
    6000           12    1904.6013    3938.7784    -70098.46   -66159.681   -65835.904    1683.6196     308114.7    1001.1235    2485.0642    1564.6712    375.55438   -851.09439   -41.990706 
    6200         12.4    1904.6558    3938.8912   -70018.371    -66079.48   -66110.852   -162.47529    309367.07   -554.20186    653.53036   -586.75436   -734.69951    393.60996    201.41826 
    6400         12.8    1892.8501    3914.4767   -70106.305   -66191.828   -66130.239    319.86025    308497.17   -36.337995   -41.091347    1037.0101    666.47029   -44.842643   -1134.5638 
    6600         13.2    1879.4578    3886.7809   -70080.894   -66194.113   -66078.211    601.41879    308764.17    324.28343    601.33011    878.64282    402.53952   -785.12175    476.25237 
    6800         13.6    1913.6485    3957.4885   -70028.777   -66071.288   -66634.415   -2909.6656    310079.88   -3184.7755   -2586.8793   -2957.3419    454.37803   -485.43425    336.25418 
    7000           14    1915.0854    3960.4599   -70082.457   -66121.997   -66035.474    448.92624    308794.86    405.76928    23.648881    917.36057   -434.82165   -946.52504    393.62687 
    7200         14.4    1880.4745    3888.8834   -70101.609   -66212.725   -66213.669   -4.8960723    308802.46   -564.20432    293.74642    255.76968   -368.13933   -1019.5356   -546.44708 
    7400         14.8    1905.8543    3941.3697   -70124.017   -66182.647   -66563.295   -1971.8117     309292.2   -1274.0127   -2203.0073   -2438.4151    92.719216    528.85995    710.86376 
    7600         15.2    1894.1796     3917.226   -70059.275   -66142.049   -66039.382    532.49979    308901.47   -70.718087    499.59628    1168.6212    758.74627     204.8952   -217.83321 
    7800         15.6    1901.7055    3932.7899   -70063.953   -66131.163   -66499.278   -1905.2271    309561.84   -2312.2797   -1214.7516     -2188.65    24.844783    -101.9506   -221.72116 
    8000           16    1878.9164    3885.6611   -70085.323   -66199.662   -65669.179    2759.6962    307978.48     3165.327    2399.7661    2713.9954   -427.47656   -553.41485   -116.99608 
    8200         16.4    1912.6962     3955.519   -70065.747   -66110.228   -66461.075   -1814.6821     309762.2   -2165.2647   -1770.0028   -1508.7786    248.13745     -85.0873    774.12968 
    8400         16.8    1904.4488    3938.4631   -70079.871   -66141.408   -66841.588   -3618.2474    310043.05   -4331.6321   -3440.0935   -3083.0167    -810.6776   -240.61286   -185.82686 
    8600         17.2    1897.1359    3923.3398   -70081.849   -66158.509   -66160.449   -10.063315    308777.58   -124.56398    641.48681   -547.11277   -1124.2738   -40.402012   -508.47975 
    8800         17.6    1909.0245    3947.9258    -70117.36   -66169.434   -66200.201   -159.57318    308913.69   -764.89812   -357.30483    643.48341    246.89895    834.93041    303.47668 
    9000           18    1901.3945    3932.1466   -70117.021   -66184.874     -66108.5    396.44053    308659.04   -82.800852    461.65832    810.46412    692.09742    607.01582    427.62362 
    9200         18.4    1917.1337     3964.696   -70099.119   -66134.423   -65816.931    1648.8529    308505.04     1403.812     1677.421    1865.3256     572.0396    133.64737     2.443305 
    9400         18.8    1895.1241    3919.1793   -70075.152   -66155.972   -66452.115    -1533.101    309485.79   -2048.3654   -2225.4804   -325.45721    315.14884    898.09834    661.47544 
    9600         19.2    1886.2562    3900.8401   -70097.945   -66197.105   -65821.847    1949.7854    308356.73    2508.1303    1599.0928    1742.1329    83.930757   -607.23391    36.927644 
    9800         19.6    1886.2313    3900.7886   -70049.807   -66149.018    -65998.18     782.5271    308831.27    237.88535     852.4298    1257.2662   -487.68109   -439.58806    166.16979 
   10000           20    1907.0261    3943.7931   -70057.016   -66113.223   -66389.259   -1428.9688    309494.22   -2209.0835   -1586.9151   -490.90786   -320.44338    95.427461     8.654916 
   10200         20.4    1912.5943    3955.3083   -70129.925   -66174.616   -65866.485    1602.3263    308102.31    943.18016    2583.4599    1280.3389    74.024427   -190.26179   -293.10089 
   10400         20.8    1902.7336     3934.916   -70073.262   -66138.346   -66150.115   -61.028514    308980.94   -118.11335   -670.59191    605.61972    -133.0219    1039.2088    116.94247 
   10600         21.2    1925.3447    3981.6764   -70070.536    -66088.86   -66302.333   -1105.5435    309370.06    -603.4369   -855.80912   -1857.3846    5.4611833    58.934875   -234.82424 
   10800         21.6    1888.9773    3906.4676   -70052.925   -66146.457   -65909.683    1229.1844    308622.83      1098.31    1566.2255    1023.0179    59.643883   -500.69064    -58.86881 
   11000           22    1895.1116    3919.1534   -70108.794   -66189.641   -66008.441    941.34011    308404.58    1095.1169    1668.0127    60.890755   -30.147786   -508.51646    37.131363 
   11200         22.4     1900.714    3930.7394   -70081.468   -66150.728   -66486.143   -1736.5411    309462.46    -2056.852   -894.28417   -2258.4872     412.6595   -120.64083    356.58386 
   11400         22.8    1900.3378    3929.9614   -70046.221   -66116.259   -65605.061    2655.6802    308407.03    2753.5853    2052.8814     3160.574   -204.94575   -194.57433    229.63967 
   11600         23.2    1890.5526    3909.7253   -70090.642   -66180.917   -66374.842   -1004.9594    309168.05    -674.6837   -1285.9022   -1054.2924    200.13583    255.77899     83.90725 
   11800         23.6    1909.2577    3948.4081   -70075.034   -66126.626    -65772.84    1838.2234    308356.59    1680.0683    855.09936    2979.5025    347.51439    397.59825    457.45324 
   12000           24    1913.0171    3956.1827    -70081.26   -66125.078   -66114.981    52.387081    308789.58   -863.13078    374.68992     645.6021   -247.29661    120.87259    619.94352 
   12200         24.4    1908.7814     3947.423   -70117.379   -66169.956   -66281.847   -580.38777    308878.87   -677.48583   -553.85099    -509.8265    497.81456    337.89165    507.06668 
   12400         24.8    1895.1365     3919.205   -70125.104   -66205.899   -66118.233    455.16573    308582.96    1128.4031    1137.1488   -900.05469    309.39618    1062.1371   -170.79445 
   12600         25.2    1906.3353    3942.3644   -70091.016   -66148.651   -66265.189   -604.18839    309033.78    837.14906   -1027.8637   -1621.8505   -2.5020162    24.523918     518.8465 
   12800         25.6    1904.8573    3939.3078   -70057.184   -66117.876   -66248.158   -674.60754    309416.21   -179.20247   -840.42863   -1004.1915    246.53338   -831.26431   -235.27046 
   13000           26    1898.0497    3925.2295   -70071.133   -66145.903   -65873.394    1415.2832    308494.56    1465.8826    321.57934    2458.3876    197.26237    -53.54459   -73.697007 
   13200         26.4    1909.4064    3948.7155   -70071.307   -66122.592   -66274.778   -788.41443    309265.04   -55.975643   -439.54563    -1869.722    112.84379    171.27729    73.017858 
   13400         26.8    1902.0459    3933.4937   -70111.176   -66177.682   -66273.091   -494.81898     308925.7   -454.70858   -347.88831   -681.86005    938.72554   -27.036801    95.220851 
   13600         27.2    1884.9143    3898.0651   -70083.004   -66184.939   -66278.988     -487.415    309148.22   -1213.5258   -551.15788    302.43869   -174.96935    589.73677    367.24009 
   13800         27.6    1927.8242    3986.8041   -70092.403   -66105.599   -65836.246     1398.731    308530.45    310.27593    1452.0729    2433.8442    715.72967    589.34824   -134.96525 
   14000           28    1892.1633    3913.0562   -70136.846   -66223.789   -66672.312   -2322.6163    309397.93   -3552.6254   -1596.0237   -1819.1999   -1007.8771    134.13444   -848.14754 
   14200         28.4    1918.4421    3967.4017   -70141.786   -66174.385   -66095.719    408.47493    308554.15   -328.27991    352.20887    1201.4958    167.90466   -239.71399    93.453226 
   14400         28.8    1896.9332    3922.9206   -70051.349   -66128.428   -65929.787    1030.5038    308838.18    1804.5586    1315.5924   -28.639706   -1315.7059    550.18515    399.28115 
   14600         29.2    1914.1237     3958.471   -70098.323   -66139.852   -66273.187   -690.82557    309234.91   -543.09135   -911.48741   -617.89794   -474.30685   -384.93481   -396.36736 
   14800         29.6     1893.403    3915.6199   -70059.865   -66144.245   -65668.925    2471.3266    308152.84    2333.2868    2158.1244    2922.5685    -300.5359    -422.6152   -519.15386 
   15000           30    1907.3798    3944.5244   -70098.577   -66154.053   -66424.498   -1400.7164    309342.39   -1257.2036   -1202.6731   -1742.2727    652.19444    -170.2357    445.13778 
   15200         30.4    1887.8574    3904.1516   -70113.111    -66208.96   -66251.005   -218.10078    308862.88    498.66183   -1029.4483   -123.51587   -921.29212   -343.45591   -912.62102 
   15400         30.8    1903.3605    3936.2125   -70085.236   -66149.023   -65977.574    889.74361    308730.87    1580.4395    580.42921    508.36212    19.830455    993.76654     174.0908 
   15600         31.2     1901.159    3931.6596   -70031.448   -66099.788   -66431.876   -1717.7444    309745.31   -790.56048   -1897.9433   -2464.7294   -447.26735    419.78087    874.77973 
   15800         31.6    1906.3992    3942.4965   -70105.107   -66162.611    -65973.13    983.88753     308553.2    730.34258    1163.3993    1057.9207   -556.61823   -413.17901    485.79918 
   16000           32    1900.2967    3929.8764   -70091.673   -66161.796   -66029.575    686.21342    308711.64    869.99051    723.58252    465.06724   -141.05868    539.68746   -642.79291 
   16200         32.4      1912.93    3956.0025   -70085.885   -66129.882    -66343.13   -1104.2829    309396.17   -592.94379   -440.55276   -2279.3521    765.26079   -633.18094    -700.0471 
   16400         32.8    1889.7714    3908.1097    -70098.15    -66190.04   -66441.769   -1304.2076    309240.06   -1373.8304   -939.75055   -1599.0419    884.26566   -27.505861   -99.766785 
   16600         33.2    1895.4706    3919.8958   -70089.175   -66169.279   -65754.588    2155.3105    308265.95    2723.1572     2332.144    1410.6302   -116.67901   -82.029378   -766.65828 
   16800         33.6    1899.0096    3927.2146   -70045.243   -66118.029   -66266.831   -770.43567    309444.88    -1703.441   -556.11811   -51.747901    618.23497    945.48598    17.366443 
   17000           34    1891.8061    3912.3175   -70077.132   -66164.815   -65794.944    1921.9738    308327.94    1410.3679    2252.5665    2102.9869    481.58155    78.493032   -1123.2556 
   17200         34.4    1906.7648    3943.2527   -70112.291   -66169.038   -66745.083   -2978.4484    309867.95   -2522.5316   -3903.7877   -2509.0259    301.25124    543.74912    510.85822 
   17400         34.8    1904.7339    3939.0527   -70078.422    -66139.37   -65905.264    1215.6931    308530.95    1985.7132    1217.3046     444.0615    1065.2635    243.94297   -429.04532 
   17600         35.2    1904.3905    3938.3425   -70104.925   -66166.582   -66154.734    61.422751    309050.91    255.49717   -760.99484    689.76592    385.43378   -766.92955    336.66004 
   17800         35.6    1898.0972    3925.3277   -70118.902   -66193.574   -66163.675    155.18925    308678.41     170.6143    107.48993    187.46352   -123.25139    240.34191   -223.58225 
   18000           36    1901.0674    3931.4703   -70062.039   -66130.569    -66374.99   -1265.8987    309350.65   -1721.3266   -618.15567   -1458.2138     157.3591   -120.29061    240.36285 
   18200         36.4    1904.8802    3939.3553   -70072.737   -66133.382   -65702.056    2242.4557    308171.32    3009.7081     2670.978    1046.6812    110.59442    40.132806    807.48143 
   18400         36.8    1892.9629    3914.7099   -70088.704   -66173.994   -66221.964   -248.88642    308801.69    125.06493   -805.27415   -66.450038    352.90225    -504.4445    -777.0166 
   18600         37.2    1908.1107     3946.036   -70095.465   -66149.429   -65695.306    2361.2275    308138.33    2495.8237    2004.6808     2583.178    478.05157    596.85397    285.13117 
   18800         37.6     1901.066    3931.4673   -70072.373   -66140.906    -66143.12   -11.478192    309146.28      254.145   -1121.9833     833.4037   -47.164809   -1277.7732   -623.17714 
   19000           38    1901.2788    3931.9075   -70085.798    -66153.89   -66434.633   -1453.5058     309457.8   -1216.4758   -1219.0059   -1925.0356   -421.01157    31.364843     595.8278 
   19200         38.4    1905.4774    3940.5903   -70068.346   -66127.756   -65627.031    2603.1359    308186.04    2055.7424     2900.639    2853.0263   -544.89325    785.35523    74.360608 
   19400         38.8    1911.8606    3953.7909   -70078.176   -66124.385   -65562.454    2922.6593    308045.79    2727.9795    3759.7496    2280.2489   -473.55305     881.0439   -316.66131 
   19600         39.2     1892.854    3914.4847   -70075.708   -66161.223   -66439.584   -1442.4996    309173.48   -1803.4541   -740.07919   -1783.9656     699.6827    292.81058   -727.41503 
   19800         39.6    1903.5343    3936.5719   -70085.137   -66148.565   -66200.294   -268.09286    309141.67     610.3744   -1729.7002    315.04722   -1028.9293   -113.15779   -654.02003 
   20000           40    1907.4047    3944.5759   -70072.345   -66127.769   -65632.925    2573.6832    308052.01    2047.5958    2342.2005    3331.2533   -190.64319    514.23047    1000.1893 
   20200         40.4    1895.8355    3920.6504   -70057.117   -66136.466   -66334.266   -1024.1471    309438.15   -1783.4003   -624.41338   -664.62759    158.50805   -714.19972   -692.96161 
   20400         40.8    1903.2896    3936.0659   -70087.619   -66151.553   -66144.624    35.945391    308874.06     492.7038   -402.50325    17.635615    751.54242    111.00752   -13.793538 
   20600         41.2    1894.4593    3917.8045   -70046.941   -66129.137   -66025.504     537.4308    308948.36    235.23478    1445.4669   -68.409274   -562.92955   -368.79568    71.622956 
   20800         41.6    1914.7853    3959.8393   -70072.355   -66112.516   -65844.069    1393.1717    308719.62     416.4762    1555.9528    2207.0861   -450.64583   -756.60955    -448.3342 
   21000           42    1895.4889    3919.9336    -70124.06   -66204.126   -66277.482   -380.44413    308922.74   -1308.6108    105.82079    61.457621   -887.07132    680.44268   -208.24386 
   21200         42.4    1913.3927    3956.9594   -70141.277   -66184.317   -65911.879    1416.6251    308122.75    1172.4382    1529.6224    1547.8148    227.03409    437.46945   -437.08774 
   21400         42.8    1889.9945     3908.571   -70026.314   -66117.742   -66545.082   -2210.8326    309689.99    -1379.218   -1823.7165   -3429.5634   -158.26509   -345.78511    990.48172 
   21600         43.2    1894.0298    3916.9162   -70027.414   -66110.498   -65714.597    2054.3904    308755.08    2655.5539    1166.7516    2340.8657    116.87953     -297.523    523.12321 
   21800         43.6    1889.6493    3907.8573   -70113.782   -66205.924   -66283.407   -401.85969    308914.69   -409.81987   -858.50802    62.748826    450.86225    52.853233   -84.986576 
   22000           44    1921.8405    3974.4297   -70143.503   -66169.074   -66073.358    497.01402    308549.65    869.71657    66.663724    554.66178    188.10529   -696.90488    476.37752 
   22200         44.4    1884.6502    3897.5189   -70024.103   -66126.584   -65764.044    1881.7819    308671.51    1033.8226    1557.7871    3053.7361    81.829529   -272.34354   -390.72542 
   22400         44.8    1903.8399    3937.2038   -70049.956   -66112.752   -66216.758   -538.89418    309219.23   -863.46948   -111.67372   -641.53933    204.85987   -129.09873   -83.301228 
   22600         45.2    1880.4578    3888.8489    -70092.82   -66203.971    -66236.64   -169.42378    308929.92    449.51767    214.59491   -1172.3839   -239.83586   -161.92374     308.9358 
   22800         45.6    1890.3476    3909.3013   -70114.558   -66205.256    -66122.76    428.29397    308605.42    1239.4391   -630.58692    676.02969    326.68235    632.30491     420.8157 
   23000           46    1911.9998    3954.0789   -70033.224   -66079.145    -66391.18   -1613.5788    309830.57   -951.05093   -1670.3816   -2219.3039    -325.5315   -342.76884   -615.60182 
   23200         46.4    1881.1358    3890.2509   -70047.098   -66156.847   -65792.311    1893.7025    308417.28    1507.2783    1981.3312     2192.498   -491.24782    421.20332   -83.948918 
   23400         46.8    1892.9946    3914.7755   -70137.312   -66222.536    -66635.62   -2139.5363    309335.13   -1775.2004   -2756.9646   -1886.4439    745.29874   -496.86186   -143.65001 
   23600         47.2    1895.7374    3920.4477   -70078.644   -66158.196   -66021.499    709.93602    308497.52     261.5779    343.74618     1524.484    318.99347    1119.6771   -319.18737 
   23800         47.6    1918.6107    3967.7504    -70075.02    -66107.27   -65746.923    1872.9976     308243.6    2015.9306    1909.5393    1693.5229   -314.28857    555.99585    510.20732 
   24000           48    1912.1114    3954.3097   -70122.727   -66168.417   -66003.022    859.63725    308260.24    733.54676    638.59456    1206.7704   -892.45416    124.23101   -724.60916 
   24200         48.4     1884.573    3897.3592   -70081.454   -66184.095   -66083.401    522.92738    308511.63    1497.0402   -74.678306    146.42022   -133.29969    372.06228    562.39818 
   24400         48.8    1920.9916    3972.6742    -70077.95   -66105.276   -66577.621   -2440.6544    310072.58   -2593.1766   -2354.8826   -2373.9039    35.477429   -374.33179    918.57459 
   24600         49.2    1896.0818    3921.1598   -70081.061   -66159.901   -66105.179    283.94285    308774.59     552.7736    290.34941    8.7055633    733.00173    75.343482   -323.88123 
   24800         49.6    1910.0407    3950.0273   -70123.212   -66173.184    -66144.32    149.79598    308726.03    834.60634    941.85633   -1327.0747    338.89581   -133.56768    391.20137 
   25000           50    1891.9396    3912.5937   -70131.785   -66219.192    -66369.42   -779.32083    308848.27   -1303.4535   -914.27111   -120.23793   -76.249201   -409.73304    159.21321 
   25200         50.4    1903.9509    3937.4334   -70097.181   -66159.748   -66438.039   -1441.7151    309264.64   -2015.2792   -887.88869   -1421.9774   -533.11082   -222.44863   -168.92904 
   25400         50.8    1916.4135    3963.2065   -70081.484   -66118.277   -65730.038    2016.5793    308456.89    1987.0346    994.59067    3068.1125     810.2489    6.8559315    -869.4413 
   25600         51.2    1890.1844    3908.9638   -70102.056   -66193.092   -65952.327    1250.8684    308383.77    659.76511    1102.4142    1990.4258    276.03285   -1317.9181    -688.6268 
   25800         51.6    1892.7403    3914.2496   -70064.391   -66150.141   -66339.902   -982.47168    309455.39   -1146.0495   -823.21519   -978.15038    679.70635   -742.48283   -274.60363 
   26000           52     1908.596    3947.0396   -70124.155   -66177.115   -66459.725   -1464.6324    309149.63   -2085.3953   -623.18328   -1685.3187   -10.799183    169.15091   -552.67338 
   26200         52.4      1889.24    3907.0107   -70117.574   -66210.564   -66030.623    934.52396    308495.18    621.76895    1095.6951    1086.1078    528.21579    125.06467    715.14268 
   26400         52.8    1909.4449    3948.7952   -70145.869   -66197.074   -66028.976    873.89634    308184.76    1258.3388   -118.77239    1482.1227   -200.61213     419.4806    1125.6231 
   26600         53.2    1908.8942    3947.6562   -70076.164   -66128.508   -65913.298    1117.2876     308608.4    225.81561    1840.5893    1285.4579   -189.81205   -553.08119    68.258563 
   26800         53.6    1904.8286    3939.2485   -70033.147   -66093.899   -65786.165    1597.1829    308696.23    2366.3754    479.18142     1945.992    108.22814   -290.98398    350.50782 
   27000           54    1887.9577    3904.3589   -70038.617   -66134.258   -66367.981   -1210.0462    309463.09   -1111.7853   -1229.5442   -1288.8091    31.056704    546.29205   -284.90762 
   27200         54.4    1906.3229    3942.3389   -70121.125   -66178.787   -65919.741    1346.5094    308231.35    698.98323     776.2531    2564.2918   -320.46465   -197.87935   -642.29868 
   27400         54.8    1887.4646    3903.3392   -70169.951   -66266.612     -66770.1   -2607.2212    309400.78    -2053.922   -3418.5498   -2349.1918   -279.02498    36.824548   -897.39459 
   27600         55.2     1904.257    3938.0665   -70179.142   -66241.076   -66421.839   -938.27129    308668.59   -1196.7656   -1297.0017   -321.04656   -478.11173    706.47943   -999.88757 
   27800         55.6    1909.4601    3948.8266   -70104.685   -66155.858   -66223.019   -348.36987    308878.35   -1641.2101    32.789214    563.31127   -254.29611    -144.3672   -75.527238 
   28000           56    1898.3491    3925.8488   -70035.303   -66109.454   -65950.007    827.12237    308857.16    626.63785     368.3174    1486.4119   -217.04743    555.66485    -69.64322 
   28200         56.4    1895.5115    3919.9804   -70027.911    -66107.93   -66479.106   -1919.7708     309770.7   -1178.5187   -2777.2065   -1803.5873    -877.8133   -862.57693     836.9414 
   28400         56.8    1898.2535     3925.651   -70086.113   -66160.462   -65768.512    2038.6546    308033.11    2164.9206    2191.9417    1759.1014     108.2251   -786.56272   -72.769649 
   28600         57.2    1901.9484    3933.2921    -70037.13   -66103.837   -66258.422   -800.79453    309282.11   -1333.0095   -693.50093   -375.87319    415.36396   -1183.5209    611.11775 
   28800         57.6    1885.5314    3899.3412    -70070.47   -66171.128   -66459.278   -1492.3116    309363.05   -1612.5102   -1573.6949   -1290.7298    405.87088    868.98152   -266.86908 
   29000           58    1896.6267    3922.2867   -70079.384   -66157.097   -66079.449    402.80171    308853.07   -219.88348    872.80854    555.48007   -717.41212   -51.193062    417.00644 
   29200         58.4    1898.6745    3926.5215   -70076.649   -66150.128   -66086.121     331.9173    308959.68    520.59555    596.62069   -121.46434    104.00448    618.57089   -697.10158 
   29400         58.8    1884.0353    3896.2472   -70112.026   -66215.779   -66405.458   -983.07525    309131.75   -1749.3706    30.994829   -1230.8499   -152.88975     139.2599     273.4022 
   29600         59.2     1903.415    3936.3252   -70064.073   -66127.748   -66687.704   -2893.2489    310083.32   -2787.2037   -1884.0314   -4008.5117    92.612541     -407.231    1.3102423 
   29800         59.6      1912.58    3955.2786   -70059.938   -66104.659   -66009.484    493.62861    308912.88    1250.3741    201.70427    28.807449   -242.09739    163.53256    -258.4223 
   30000           60    1897.0582    3923.1791   -70117.314   -66194.135   -66512.942   -1651.7143    309245.44   -1891.4027    -1203.268   -1860.4723     393.4795    511.84344     211.9737 
   30200         60.4     1906.776    3943.2759   -70106.697   -66163.421   -65647.444    2684.2486     307976.9    2472.8242    2978.8993    2601.0223   -765.88406    753.35659    116.32808 
   30400         60.8    1915.7345    3961.8023   -70080.031   -66118.228   -66573.328   -2353.3373    309836.72   -1624.4293   -2323.9196    -3111.663    177.21568    193.96691   -670.64077 
   30600         61.2    1913.1935    3956.5474    -70093.21   -66136.663   -66005.887    678.98193    308588.79     588.6542     813.5287    634.76289   -793.18341    302.34335    -48.55313 
   30800         61.6    1887.7901    3904.0123   -70088.968   -66184.956   -66298.548   -588.74551    309121.76    275.42976   -108.43643   -1933.2299    204.40083    231.46933    218.41239 
   31000           62    1909.1673    3948.2211   -70064.865   -66116.644   -66217.988    -525.1747    309174.89   -191.18278     4.022354   -1388.3637    700.20216    460.92663    997.18454 
   31200         62.4    1908.5625    3946.9703   -70093.266   -66146.296   -66657.805    -2646.925    309615.28   -2224.5251   -3410.5678   -2305.6822   -154.06279   -242.02219    358.26128 
   31400         62.8    1893.6597    3916.1509   -70029.543   -66113.392   -65747.439    1899.5717    308659.47     1022.576    2795.4514    1880.6877    18.065217    1597.7996   -79.011293 
   31600         63.2    1908.5453    3946.9347   -70019.626   -66072.691   -66095.835   -119.88918    309287.47   -635.07011    801.59953   -526.19697   -420.53813   -942.09343   -813.49841 
   31800         63.6    1904.5205    3938.6114   -70073.048   -66134.436   -66210.771   -395.64896    309118.11   -253.14368   -14.774117   -919.02909    493.60068     469.6879   -679.55142 
   32000           64    1891.5827    3911.8555   -70056.611   -66144.755   -65989.825    804.56875    308519.57    1088.2297   -62.598969    1388.0755    -383.7884   -452.51028    466.15247 
   32200         64.4    1905.4612    3940.5568   -70052.261   -66111.704   -66185.851   -383.97836    309384.26   -817.33303   -149.23483   -185.36723   -730.12446    150.49195   -248.82921 
   32400         64.8    1887.8176    3904.0693   -70073.103   -66169.034   -66130.703    198.79085    308931.81   -5.6658719   -295.00807     897.0465    615.13642   -138.06059     116.7555 
   32600         65.2    1909.7139    3949.3515   -70088.984   -66139.632   -66604.889   -2407.3685    309642.24   -3209.6489   -1691.2365   -2321.2202   -155.88317    156.66637     395.7413 
   32800         65.6    1904.1618    3937.8697   -70093.995   -66156.126   -65628.946    2743.5163    307865.65    2930.1667    2736.4561     2563.926    357.59485    171.15931   -138.32294 
   33000           66    1891.0028    3910.6563   -70043.644   -66132.987   -66363.497   -1193.4102    309462.97   -1355.4623   -670.83529    -1553.933   -127.73291   -826.06342    285.78564 
   33200         66.4    1908.7539    3947.3662   -70082.222   -66134.856   -66273.671   -719.72303    309016.02   -981.62325    182.07286   -1359.6187    576.76197    140.27254    252.18459 
   33400         66.8    1903.9562    3937.4444   -70110.705   -66173.261   -65822.132     1825.863    308112.26    2713.4286    1472.0386    1292.1217   -784.99196   -434.07551   -362.13196 
   33600         67.2    1901.7931     3932.971   -70050.673   -66117.702   -66075.384    219.39997    309028.18    351.10409   -54.445677    361.54149   -274.10203   -1026.6707    115.17167 
   33800         67.6    1903.8674    3937.2607   -70098.777   -66161.516   -66437.001   -1427.6109    309170.31   -1544.0143   -1283.2552   -1455.5631    130.69806     46.23203   -816.10208 
   34000           68     1901.734    3932.8487   -70068.859   -66136.011   -65934.875     1044.061    308655.36    608.08833    922.80314    1601.2914   -267.27484   -564.62536    430.77518 
   34200         68.4    1882.3451    3892.7519   -70027.736   -66134.984   -66318.833   -952.05104    309393.61   -1263.5849   -461.56622   -1131.0019    -555.0341   -1502.2867   -172.29726 
   34400         68.8     1883.183    3894.4847   -70110.166   -66215.681   -66083.403    686.56243    308688.16     874.9408   -387.25473    1572.0012    413.13532     418.5664   -112.82576 
   34600         69.2    1895.4936    3919.9433   -70081.294   -66161.351   -65938.678    1156.0874    308592.91    1038.9014    993.11931    1436.2415    784.36016    74.404791     948.1228 
   34800         69.6    1891.0161    3910.6838   -70049.771   -66139.087   -66206.087   -347.01872    309339.39   -222.72421   -380.37405   -437.95792   -90.386469    610.72294    438.16556 
   35000           70    1910.9317    3951.8699   -70064.458   -66112.588   -66441.384   -1702.2208    309471.15    -619.2382   -2823.3075   -1664.1167    303.40452   -345.78219   -1007.9193 
   35200         70.4    1892.2331    3913.2006   -70126.565   -66213.364   -65713.235    2602.0159    307951.94    2978.0292    2622.3786    2205.6399    242.38011    217.18895    133.70567 
   35400         70.8     1893.072    3914.9354   -70073.235     -66158.3   -66385.619   -1177.8082    309222.79   -795.04552   -1285.4242   -1452.9549   -453.80991   -907.99832   -231.96598 
   35600         71.2     1922.399    3975.5848   -70083.431   -66107.847    -65818.45    1504.1731     308252.5     2276.532    1833.3467    402.64059   -897.92587   -101.15844   -387.32926 
   35800         71.6    1897.8951    3924.9099   -70090.789   -66165.879   -66462.543   -1537.0623    309231.53   -947.51476    -1717.325   -1946.3471    189.69073    31.126349   -391.86975 
   36000           72     1908.806    3947.4738   -70160.328   -66212.854   -65836.702    1958.2053    307762.48    1597.2439    2401.4338    1875.9383   -887.29178   -120.81358    597.25623 
   36200         72.4    1910.2095    3950.3763   -70090.135   -66139.758   -65635.896    2620.8208    308024.03    2713.5763    2270.6138    2878.2722   -180.96021   -5.2471717    539.17069 
   36400         72.8    1893.5515     3915.927   -70054.521   -66138.594   -66728.093   -3047.3766    309932.43   -2652.9439   -3093.0109   -3396.1748    350.39347   -121.54379    -229.8235 
   36600         73.2    1902.8364    3935.1287   -70109.322   -66174.193   -66008.203      862.501    308341.61    1370.6868    1598.0273   -381.21101   -974.20689   -924.20607   -442.90301 
   36800         73.6    1863.0785     3852.908   -70085.898    -66232.99   -66552.987    -1657.332    309347.84   -2440.5532   -1274.1784   -1257.2643   -87.569815   -47.712192    687.71378 
   37000           74     1903.388    3936.2694   -70095.555   -66159.286    -66002.19     815.7001    308563.83    827.77692    1489.7843    129.53905   -65.173743    521.31039   -897.54115 
   37200         74.4    1891.5172      3911.72   -70061.791   -66150.071   -66489.604   -1756.7717    309654.45   -1470.6034   -1748.3987   -2051.3128    526.56495   -716.48163     333.6013 
   37400         74.8    1900.3735    3930.0353   -70063.315    -66133.28   -66486.037   -1825.0121    309684.97   -2250.2607    -2187.107   -1037.6685    179.10409   -54.579154    -390.7826 
   37600         75.2     1901.474     3932.311   -70030.401    -66098.09   -66050.448     247.0208    309004.17    396.65676    773.36628   -428.96064    748.78523    26.699535   -963.31644 
   37800         75.6    1877.1667    3882.0427   -70051.881   -66169.839   -66453.585    -1469.085    309452.38    -1196.082   -2372.6284   -838.54476    1189.1668   -59.897977    243.84418 
   38000           76    1884.2338    3896.6577   -70097.774   -66201.116   -66085.148    602.08233    308597.65     890.5331     155.6604    760.05348     225.0966   -191.16421    175.36407 
   38200         76.4    1909.7715    3949.4706   -70059.198   -66109.728   -66087.153    117.03671    309036.21    348.12191   -87.063085    90.051292    402.99237    118.62201   -99.312202 
   38400         76.8    1874.4389    3876.4016   -70064.869   -66188.467   -66385.021   -1018.3493    309239.68   -2395.9775    -1094.059    434.98863    59.004045    819.78565   -215.56428 
   38600         77.2    1909.8146    3949.5597   -70088.876   -66139.317   -65734.742    2102.6795    308273.23    1229.0305    2510.1179    2568.8899    44.506673   -345.43073    391.91756 
   38800         77.6     1875.545     3878.689   -70039.517   -66160.828   -66152.321    44.092381    309107.81    -216.9495    254.81492    94.411722   -312.56668   -260.97568    174.46846 
   39000           78    1896.0163    3921.0244   -70089.998   -66168.974   -66356.077   -969.38265    309240.09   -971.36085   -1289.8145   -646.97256    207.51732    633.61795   -379.68931 
   39200         78.4    1916.3777    3963.1325   -70075.177   -66112.045   -65679.535    2248.4598    308191.98    1530.8173     2656.173    2558.3891   -126.16284    385.62426    945.09961 
   39400         78.8    1894.1586    3917.1826   -70081.869   -66164.687   -66490.432   -1687.1214    309344.81   -1584.8069   -2108.7202   -1367.8372    559.75957    557.18654    94.657975 
   39600         79.2    1881.5229    3891.0516    -70097.51   -66206.458    -66087.64    616.80595    308634.13    922.62907     154.9056    772.88319    386.51704    9.4780561    278.38898 
   39800         79.6    1901.0789     3931.494   -70047.882   -66116.388   -66650.956   -2761.1273    310189.44    -3824.578   -2212.6205   -2246.1833  -0.84301424    350.69535    143.23516 
   40000           80    1901.4337    3932.2277   -70035.196   -66102.969    -66305.36   -1047.5329    309552.88   -450.71793   -2278.2532    -413.6275    -177.1938   -912.28281    546.67855 
   40200         80.4    1878.4761    3884.7508   -70085.205   -66200.454    -66044.72    808.30461    308688.43    556.27782   -187.75653    2056.3925     386.3326    -4.847159    748.25727 
   40400         80.8    1898.6448    3926.4603   -70113.813   -66187.352   -66458.309   -1403.3719    309340.43   -2334.6182   -2007.6034    132.10577    804.85127    41.017853   -1085.3567 
   40600         81.2    1899.2241    3927.6582   -70154.065   -66226.406   -66261.528   -182.43635    308445.88   -837.93027    641.02379   -350.40256   -1108.5933   -682.50573    304.94082 
   40800         81.6    1916.5917    3963.5749   -70124.213   -66160.638   -65954.318    1071.8592    308399.66    1693.3083    14.702294    1507.5671    -382.2483    865.31907     -768.162 
   41000           82    1927.7888    3986.7311   -70109.138   -66122.407    -66386.48   -1368.4785    309169.59    -2325.851   -1308.0415   -471.54297   -436.70175   -607.47175   -1348.7356 
   41200         82.4     1881.986    3892.0093   -70100.376   -66208.367   -66174.533    175.68178    308563.79    454.91018   -999.49944    1071.6346   -318.03492   -228.32367   -666.98862 
   41400         82.8    1898.8382    3926.8601   -70077.531   -66150.671   -66192.124   -214.87384    309090.45   -907.02127   -759.16097    1021.5607    436.45557    352.66653   -517.41807 
   41600         83.2    1926.0593    3983.1543   -70064.364    -66081.21    -66064.21    88.153474    308968.47   -699.76727    1310.6613   -346.43362   -11.650851    174.82615   -559.13389 
   41800         83.6    1910.3622    3950.6922   -70056.279   -66105.587   -66253.645   -767.03522    309261.76    -1014.796   -630.24945   -656.06022   -1173.5852    -235.8574   -118.13133 
   42000           84     1895.622    3920.2089   -70088.357   -66168.148   -65946.014    1153.6127    308507.29    643.03108    743.25409     2074.553    168.46879    492.83716   -241.12705 
   42200         84.4    1898.7569    3926.6921   -70133.559   -66206.867   -66147.539    308.01129    308603.06    -863.4235    848.19973    939.25765   -80.914835   -684.38631    18.072162 
   42400         84.8    1916.4464    3963.2746   -70190.547   -66227.272   -66511.584   -1475.0776    308809.69   -1591.9942   -1555.3519   -1277.8869    533.88269    264.64376    1178.0779 
   42600         85.2     1899.144    3927.4926   -70075.479   -66147.986   -65742.781    2106.3803    308211.13    1456.2809    1894.7955    2968.0644   -905.55957    133.15843    253.43458 
   42800         85.6    1896.7953    3922.6353   -70070.897   -66148.262   -66423.037   -1422.9833    309376.92   -1876.0372    -2183.311   -209.60189    223.98953   -70.777933   -376.07733 
   43000           86    1879.3635    3886.5857   -70107.863   -66221.277    -66358.09   -709.83073    308805.06   -635.16929   -148.01762   -1346.3053    810.84775   -457.56661   -264.77363 
   43200         86.4    1912.6408    3955.4044   -70112.109   -66156.705   -65763.506    2044.0005    308206.14    1297.4014    2402.2899    2432.3103   -398.19933    496.39366    535.81633 
   43400         86.8    1893.4031    3915.6202    -70063.56    -66147.94   -66295.478   -764.21103    309314.99    -1254.855   -320.92594   -716.85214    668.67879   -673.26504    34.806574 
   43600         87.2    1892.3613    3913.4657   -70118.127   -66204.662   -66271.071   -344.39581    308945.17    272.85642   -468.23355   -837.81031   -404.69522    240.61776    576.80873 
   43800         87.6    1878.0487    3883.8668   -70055.913   -66172.046   -66180.843   -45.589666    309146.68   -712.12684    726.76129   -151.40344   -772.13952    -359.6289    217.84759 
   44000           88     1925.027    3981.0194   -70102.808   -66121.788   -65868.528    1315.3276     308491.8    1315.8653    977.92615    1652.1914   -160.94717    516.59977   -512.46998 
   44200         88.4    1879.9438    3887.7859   -70073.747   -66185.961   -66061.367    646.41102    308814.73    1404.3304    32.387472    502.51522   -557.22594    264.43546    286.13544 
   44400         88.8     1890.363    3909.3332   -70080.868   -66171.535   -66288.465   -606.18407    309051.43   -624.01726   -147.14682   -1047.3881    779.22249   -344.85785   -397.46548 
   44600         89.2    1904.2427    3938.0369     -70052.6   -66114.563   -65750.458    1890.3768    308594.97    2311.1478    1615.7741    1744.2086   -419.24329   -419.82692    48.638441 
   44800         89.6    1911.2334    3952.4938   -69997.895   -66045.401   -65958.742    448.81324     309356.8    158.76674    1118.1673    69.505674    595.96249    533.38393   -403.51823 
   45000           90    1903.1187    3935.7124   -70057.192   -66121.479   -66201.704   -415.58142    309287.62    221.27161   -419.85637   -1048.1595    324.19053    349.72521    -187.2252 
   45200         90.4     1890.239    3909.0768   -70096.107    -66187.03   -66019.563    869.69241    308514.79    1104.8616    1644.6019   -140.38626   -181.66266   -389.07072   -1157.1457 
   45400         90.8    1908.6239    3947.0973    -70096.25   -66149.153   -66356.141   -1072.8453    309113.97   -2497.4526   -102.40292   -618.68048   -285.83248    50.568597    -165.1652 
   45600         91.2    1905.5241    3940.6868   -70046.477    -66105.79   -65609.689    2579.3989    308149.94    3342.1642    2070.1707     2325.862    433.18393   -60.086997   -606.43952 
   45800         91.6    1898.7873     3926.755   -70080.688   -66153.933   -66612.963   -2374.7853    309689.66   -1624.1165    -2975.008   -2525.2315    84.558234   -547.79896   -674.65117 
   46000           92    1914.5471    3959.3467   -70128.858   -66169.512   -66153.864    81.184022    308813.32   -508.08058    1105.4301   -353.79741    456.52297    89.857138   -61.051377 
   46200         92.4    1897.0666    3923.1964   -70102.572   -66179.375   -66047.074    686.23763    308888.08     697.5237    688.51851    672.67068    421.86223   -134.33414   -1389.4703 
   46400         92.8    1907.6931    3945.1724   -70042.706   -66097.533   -66417.178   -1653.5752    309708.99   -1953.9791   -1218.8871   -1787.8593    354.68737   -326.60029    311.30193 
   46600         93.2    1896.8584    3922.7658   -70107.442   -66184.676   -66072.909     580.0972    308690.28    257.16316    1059.0034    424.12502   -334.92334    405.57393   -525.53962 
   46800         93.6    1900.6921     3930.694   -70120.791   -66190.097   -66217.444    -141.8373    308901.75    30.378942    16.016058   -471.90689   -59.084896    485.08071    668.94261 
   47000           94     1912.123    3954.3337   -70063.467   -66109.133   -66258.638    -774.5597    309251.23   -514.56892   -1009.7089   -799.40126    154.73656   -341.73173   -107.80335 
   47200         94.4    1878.0427    3883.8544   -70012.795   -66128.941   -65760.567    1911.4604    308769.24    1163.6326    2175.4852    2395.2634   -110.04776   -408.97067   -613.75499 
   47400         94.8    1873.2935    3874.0329   -70088.041   -66214.008   -66000.298    1110.2069    308411.37    1794.9639   -146.45135    1682.1082    -86.50664   -180.43832     262.5684 
   47600         95.2    1884.0372    3896.2512   -70061.988   -66165.737   -66002.292    848.80895    308510.52    -5.219112    797.24597       1754.4   -560.95704    75.133633   -528.00519 
   47800         95.6    1923.4668    3977.7929   -70104.822   -66127.029   -66241.969   -596.07792    308943.01   -791.72701   -576.97346   -419.53328   -60.987431   -91.761462    593.36056 
   48000           96     1898.308    3925.7638   -70081.143   -66155.379   -65941.849    1108.5281     308618.4    1488.8775    1273.5092    563.19754    532.92761   -300.07407    1399.9362 
   48200         96.4    1891.9804     3912.678   -70149.602   -66236.924   -66637.948   -2077.7357     309235.9   -1991.7533   -2452.6862   -1788.7677    745.21826    -289.4389    220.52875 
   48400         96.8    1909.5508    3949.0141   -70109.345   -66160.331    -65733.62    2219.5931    308013.61    2090.4803    2502.8908    2065.4083   -181.10335    1050.5863   -673.32843 
   48600         97.2    1884.6471    3897.5126   -70066.719   -66169.206   -66615.085   -2306.2447    309757.93   -2232.9457   -1780.0517   -2905.7366    815.41158   -24.067759    514.29873 
   48800         97.6    1907.9365    3945.6758   -70039.174   -66093.498   -65854.619    1239.1443    308863.16      703.117    1067.3053    1947.0106    45.888422   -13.652557   -1047.6292 
   49000           98    1893.9609    3916.7738   -70052.741   -66135.968   -66445.031   -1600.0189    309479.98   -1916.1715   -2644.5062   -239.37902    90.208813   -625.84517   -610.57663 
   49200         98.4    1896.9713    3922.9994   -70066.186   -66143.187   -66067.241     394.0082    308825.11    876.62657   -133.10148     438.4995    39.771512   -443.07894   -463.17977 
   49400         98.8    1915.5089    3961.3357   -70115.364   -66154.028   -66233.201   -410.61213    308925.77    117.28443    359.80704   -1708.9279   -425.65227    -282.1471    241.84916 
   49600         99.2     1877.711    3883.1685   -70072.703   -66189.534   -66448.538   -1341.2189    309397.66   -1116.6626   -1505.9651   -1401.0289     379.7818   -222.99753     251.0913 
   49800         99.6    1903.4223    3936.3402   -70067.322   -66130.982   -65825.742    1585.5298    308445.24    2280.1847    1045.4021    1431.0027    562.91624   -211.34369    447.92762 
   50000          100    1918.6636    3967.8598   -70057.275   -66089.415   -66022.436    347.22324    309058.38    210.40358    589.85601    241.41014   -132.06822   -588.56967    189.55908 
   50200        100.4    1913.0599    3956.2711   -70142.028   -66185.757   -66349.399   -848.79479    308889.16   -441.02086   -1024.3089   -1081.0546    206.74548   -379.30223    62.945666 
   50400        100.8    1885.3436    3898.9529   -70071.939   -66172.986   -66111.986    316.37314    308913.48    270.42419     282.1783    396.51693    303.43082    319.50686    64.575908 
   50600        101.2    1913.5172    3957.2168   -70054.409   -66097.192   -66408.183   -1609.2294    309628.42     -1405.35   -1896.7926   -1525.5454   -535.37881   -996.38466   -147.34827 
   50800        101.6    1904.8436    3939.2796   -70123.687   -66184.408    -66006.62    923.88624    308314.34    923.98116    1259.0716    588.60595   -759.74634     92.48075    600.31364 
   51000          102    1889.1226    3906.7679   -70080.439   -66173.671   -65891.188     1466.655    308584.85    956.39891    2060.9549    1382.6112   -548.46686   -84.673721    75.055449 
   51200        102.4    1902.6838     3934.813   -70029.368   -66094.555   -66431.569   -1742.9994     309785.8   -2387.5218   -1047.2157   -1794.2607     731.7362   -821.63917    332.40897 
   51400        102.8    1891.8685    3912.4465   -70057.479   -66145.033   -65955.936    981.23307    308761.68    707.66377    1592.0639    643.97156    773.50857    265.21344    525.17265 
   51600        103.2    1886.8534    3902.0751   -70097.186   -66195.111   -66037.896    816.39016    308535.87    919.69546    791.56309    737.91193     81.27613   -554.04261    237.93332 
   51800        103.6    1906.1088    3941.8961    -70082.09   -66140.194   -66377.091   -1227.2569    309268.65   -1265.9739   -810.14467   -1605.6522   -330.75966   -357.11078    56.067668 
   52000          104    1909.7296     3949.384   -70050.888   -66101.504   -66056.461    233.57624    308960.58   -506.97398    552.42696    655.27573   -248.49642    192.81137     133.4884 
   52200        104.4    1896.3682    3921.7522   -70078.405   -66156.652   -66339.697   -948.03776    309344.55   -1158.6073   -1167.3403   -518.16568    274.67923   -123.70825   -43.632432 
   52400        104.8     1893.537    3915.8972   -70060.199   -66144.302   -66198.383   -280.12596    309314.17   -267.18052    -1475.043    901.84559   -371.17493    199.18375   -233.77347 
   52600        105.2    1903.7291    3936.9748   -70065.923   -66128.948   -65894.331    1217.5568    308731.47    1077.0546    683.33005    1892.2859    618.48061    322.79331   -1321.3366 
   52800        105.6    1895.2406    3919.4203   -70134.152   -66214.731   -66476.848    -1358.878     309047.2   -188.79927   -2826.3205   -1061.5143   -219.92732   -128.32587    783.99207 
   53000          106     1891.341    3911.3558   -70108.601   -66197.245   -66286.464   -462.65992    308962.31   -824.32817   -625.55549     61.90389    818.97203   -148.02454   -700.58782 
   53200        106.4    1899.5653    3928.3639   -70063.977   -66135.613   -66372.624   -1226.9334    309497.95   -1338.8142   -1440.8685   -901.11751    98.217154    111.12501   -674.09923 
   53400        106.8    1889.2973    3907.1293    -70087.68   -66180.551    -66332.77   -788.95691    309119.17   -1032.8275   -675.51802   -658.52523   -281.50627   -66.424432   -401.30518 
   53600        107.2    1908.5944    3947.0363   -70042.236     -66095.2   -66134.854   -205.47393    309197.44   -293.40453    131.32485   -454.34213    663.62354   -36.608128   -296.97919 
   53800        107.6    1901.1472    3931.6352   -70091.559   -66159.923   -66033.731    654.93487    308705.27    372.54155   -285.46695      1877.73   -151.16381   -478.39331    134.21083 
   54000          108    1885.0306    3898.3055   -70092.677   -66194.372   -66232.105   -195.75461    308834.42    626.38523   -500.55092   -713.09813   -427.07853   -630.10593   -489.75939 
   54200        108.4    1933.0298    3997.5696   -70095.118   -66097.549   -66095.921    8.4392898    309032.33   -1.6760562    85.562062   -58.568137    413.25639    875.77561   -830.86494 
   54400        108.8    1874.8991    3877.3534    -70051.38   -66174.026   -66079.002    493.04186    308787.96    699.84215    802.31754   -23.034119   -795.90048    451.20296   -556.42009 
   54600        109.2     1913.314    3956.7965   -70064.326    -66107.53    -65808.03    1555.3308    308520.41    1711.5922    1522.9274     1431.473   -1.7037687    250.24532   -230.83209 
   54800        109.6    1918.3031    3967.1142   -70082.579   -66115.465     -66422.6   -1590.5991    309370.89   -1646.3484   -1609.0253   -1516.4237   -147.25133    103.75929   -204.88447 
   55000          110    1880.8947    3889.7524   -70069.077   -66179.325   -66223.869   -230.90011    309079.56    -1492.049    1016.6373   -217.28869   -141.43905   -763.29695    201.86238 
   55200        110.4    1929.6559    3990.5922   -70094.633   -66104.041   -66146.872    -222.1974    308839.55    85.129017   -91.026636   -660.69457    26.140685   -423.30705    1071.5032 
   55400        110.8    1910.4701    3950.9153   -70079.843   -66128.927   -66383.522   -1317.9892    309491.11    -1436.742   -1452.9589   -1064.2668    60.396499   -396.75475    286.44757 
   55600        111.2    1884.8476    3897.9271   -70065.674   -66167.747   -66191.385   -122.62871     308832.5   -394.28331   -549.94644    576.34361    210.70326   -226.53227    588.86692 
   55800        111.6     1908.983    3947.8399   -70037.845   -66090.005   -66470.146   -1965.0975    309935.02   -1460.9858   -2571.7125   -1862.5943    1029.7645    668.58816   -356.94829 
   56000          112    1915.5726    3961.4674   -70106.821   -66145.354    -65965.12    935.71368    308606.53    690.36813    875.65644    1241.1165    457.51654    436.40374    316.32207 
   56200        112.4    1890.4707    3909.5559   -70074.052   -66164.496   -66243.363   -408.83915    309065.19   -574.33048   -344.08833   -308.09864   -39.054816    968.34674    910.97224 
   56400        112.8    1890.9541    3910.5557   -70092.289   -66181.733   -66483.153   -1561.0274    309365.69   -1067.1205   -1987.7022   -1628.2594    156.64111   -1052.0399   -450.31699 
   56600        113.2    1894.6226    3918.1422   -70155.419   -66237.277     -65923.5      1631.99    308044.42    2281.3049    1400.4706    1214.1945   -353.33172   -189.95101    534.61255 
   56800        113.6    1919.8053    3970.2208   -70108.302   -66138.081   -66431.415   -1518.7231    309453.14   -1612.7137   -1604.7737   -1338.6819   -422.72532    119.82102   -476.73547 
   57000          114    1913.4237    3957.0234   -70100.836   -66143.812   -65987.829    809.80134    308610.18    1108.6333    696.32111    624.44961    651.49367    219.73228   -842.27402 
   57200        114.4    1899.9671    3929.1947   -70139.601   -66210.406   -65959.672    1304.1761    308026.63    1609.5077    1632.4498    670.57084   -36.344155   -170.57573    311.99794 
   57400        114.8    1894.0412    3916.9398   -70047.169   -66130.229   -66512.128   -1975.3524    309751.42   -1150.7258    -1838.942   -2936.3894     557.6322   -3.1878824   -59.168976 
   57600        115.2    1921.4801    3973.6843   -70082.015    -66108.33   -65845.138    1367.0685    308456.24    1418.6862    1455.9356    1226.5836    51.252538    -187.4503   -16.117937 
   57800        115.6    1903.0939    3935.6612   -70108.826   -66173.165    -66624.45   -2335.2572    309618.44   -1729.8589   -2486.9307   -2788.9819    -57.88182    399.92688    563.11976 
   58000          116    1898.1871    3925.5138   -70119.213     -66193.7   -66157.237    189.32015    308571.27    734.04186   -6.5881776   -159.49322   -1157.9009     114.7924    3.2133624 
   58200        116.4    1872.9884    3873.4019   -70069.718   -66196.316   -66284.284   -455.89831    309147.74   -127.70106    9.3472349   -1249.3411    550.90401    -141.1222   -130.47635 
   58400        116.8    1894.0121    3916.8797    -70045.86    -66128.98   -65947.948    938.72581    308978.98    1202.2034    950.69474    663.27932   -336.19586    1051.8011    713.94766 
   58600        117.2    1903.1568    3935.7911    -70042.25   -66106.459   -66515.046   -2113.9094    309676.22   -2857.1467   -2283.8278   -1200.7535    176.63959    288.81751   -165.05498 
   58800        117.6    1897.4902    3924.0724   -70088.231   -66164.158   -65783.394    1978.9786     308265.8    1691.0141    2702.3072    1543.6147   -726.00526   -159.68092    126.08784 
   59000          118    1911.9206    3953.9151   -70061.389   -66107.474   -66144.135   -190.02541    309100.89   -1035.3371    856.81964   -391.55882   -364.05544    281.00114     1299.168 
   59200        118.4    1903.7526    3937.0234   -70140.767   -66203.743   -66491.609   -1491.3106    309266.12   -1486.0715   -2060.3551   -927.50524     653.4112    369.53841   -33.790761 
   59400        118.8     1898.576    3926.3179   -70119.104   -66192.786   -65893.014    1556.4524    308578.96    2118.0406    2415.9368    135.37972   -893.10506    362.44044   -477.94245 
   59600        119.2    1915.3593    3961.0264   -70080.642   -66119.616   -66454.775   -1734.5577    309579.79   -2538.3403    157.60544   -2822.9383   -61.512753   -252.82342    235.01528 
   59800        119.6    1887.6637     3903.751   -70079.057   -66175.306     -65763.6    2139.0862    308367.98    2725.3713    2736.5048    955.38244   -502.25503    476.59429    319.87268 
   60000          120    1903.8026    3937.1267   -70061.673   -66124.547    -66347.84   -1156.2547    309408.05   -2008.8709   -1188.5379   -271.35537    -123.1257    1173.4754   -166.50223 
   60200        120.4    1887.7116    3903.8501   -70052.101   -66148.251   -66067.505    418.56166    309078.24   -235.92612    1458.2292    33.381894    -668.3683   -207.45822    129.64299 
   60400        120.8    1882.2287    3892.5113   -70085.658   -66193.146   -66124.818    354.42423     308879.2   -263.21433     599.5958    726.89123     328.9632    440.62146    71.630923 
   60600        121.2    1930.8091    3992.9771   -70079.585   -66086.608   -66125.861   -203.42029    309162.61    1068.3891   -1180.5817   -498.06827   -912.08462   -141.89153    314.91461 
   60800        121.6      1904.92    3939.4376   -70052.129   -66112.691    -66135.06   -115.84757    309367.07     1097.492   -1128.7204   -316.31424   -374.57043   -800.61858     886.1645 
   61000          122    1879.2161    3886.2811   -70063.937   -66177.656    -66511.43   -1727.1103    309629.88   -991.58928   -1306.1517   -2883.5899    613.75561   -1042.8021    -240.8597 
   61200        122.4     1921.408    3973.5352   -70122.385    -66148.85   -66039.127     569.7748    308535.37    1306.0032     11.40098    391.92021   -553.05659   -395.14024    740.38218 
   61400        122.8     1905.673    3940.9947   -70018.042   -66077.048   -66600.228   -2702.1043    310212.91   -3023.1158   -3014.2999   -2068.8972    123.46718   -272.04495   -599.33025 
   61600        123.2    1897.3563    3923.7955   -70078.087   -66154.291   -66152.583    8.8595394    308948.26   -47.913157    804.48404   -729.99226    -346.3685   -133.23068    407.87677 
   61800        123.6    1903.3901    3936.2737   -70083.785   -66147.512   -66151.322   -19.763284    308920.48    59.953014   -68.984576    -50.25829   -688.30884    103.64512    328.34327 
   62000          124    1895.0206    3918.9652   -70045.961   -66126.996    -66368.46   -1249.7675     309551.5   -801.95923   -940.87562   -2006.4678   -44.442908    25.429117   -438.14656 
   62200        124.4    1882.6855    3893.4559   -70080.011   -66186.555   -66168.945    91.350011    308861.05   -273.96509   -23.159251    571.17437      700.065    132.77217   -714.18666 
   62400        124.8     1899.915    3929.0871   -70093.326   -66164.239   -66364.277   -1037.3142    308967.39   -722.00453   -752.84892   -1637.0891    66.322046   -128.47947    75.711355 
   62600        125.2    1899.5729    3928.3795    -70050.54    -66122.16   -66010.155    581.04587    308843.43    1076.1821    507.53315    159.42238    110.44204    383.51686   -112.92482 
   62800        125.6    1890.1719     3908.938   -70068.975   -66160.037   -66266.358   -551.13112    309084.23   -1516.1823    170.89424   -308.10534   -125.53806    252.06715    511.95939 
   63000          126    1892.3732    3913.4903   -70137.142   -66223.651   -65939.529    1477.3271    308133.46    1422.4743    1959.9549    1049.5522   -180.65542     489.1375    252.71557 
   63200        126.4    1891.9001     3912.512   -70107.651   -66195.139   -66512.434   -1643.2221    309369.54   -1564.6277   -2239.1875    -1125.851   -488.62891    255.10473    663.53814 
   63400        126.8    1901.6121    3932.5967   -70073.739   -66141.142   -65676.436    2415.7923    308197.24    2529.3865    3014.0293    1703.9611    98.219277   -1064.5027   -379.88704 
   63600        127.2    1917.3112     3965.063   -70019.473    -66054.41   -66193.729   -721.05497    309565.37   -409.58937   -1900.3477    146.77215    -636.7711    429.13828    636.67963 
   63800        127.6    1910.8338    3951.6676    -70084.05   -66132.382   -65758.175    1944.3735    308348.81    924.56147    2538.3646    2370.1943    241.43549   -1005.0553   -346.10382 
   64000          128    1878.8843    3885.5949    -70056.08   -66170.485   -65916.302    1318.9859     308756.5    184.98569    1237.1618    2534.8102    156.54815    635.48638   -145.98041 
   64200        128.4    1925.6238    3982.2537    -70085.42   -66103.167   -66474.914   -1924.2031    309533.47   -1620.3278   -2326.1765   -1826.1051   -179.63687   -440.72685    1176.9683 
   64400        128.8    1885.8978    3900.0991    -70071.94   -66171.841   -65990.974    938.71883    308697.42    876.49514    1818.3849     121.2764    688.28637    160.12371    836.84738 
   64600        129.2    1900.0904    3929.4497   -70122.872   -66193.422   -66418.038    -1163.863    309206.26   -1311.2614   -611.88883   -1568.4389   -124.48644    346.25343    293.61265 
   64800        129.6    1925.3065    3981.5975   -70097.391   -66115.793   -66150.527    -180.0868    309020.89   -2012.4918    608.64546    863.58591   -594.50914   -234.41922     314.8211 
   65000          130    1904.0866     3937.714   -70098.466   -66160.752   -65751.725    2126.9645    308107.32    2360.9109    991.35502    3028.6275    117.29341   -370.87302    284.51543 
   65200        130.4    1884.7179     3897.659   -70102.251   -66204.592    -66623.35   -2168.9421     309332.2   -2509.0425   -2432.5488    -1565.235    319.83206   -143.84678   -110.15853 
   65400        130.8    1903.3457    3936.1819   -70070.764   -66134.582   -66295.816   -834.75858    309461.71   -722.93203   -1043.1633   -738.18037   -57.904851   -27.271807    435.36265 
   65600        131.2     1904.994    3939.5905   -70088.433   -66148.842   -66112.508    188.38453     309012.5     380.7679   -506.52322     690.9089   -36.002115   -892.67682    443.06828 
   65800        131.6    1901.5369    3932.4411   -70163.291    -66230.85   -66009.144    1152.1066    308316.13    1059.9179     192.2945    2204.1074    72.978801    307.92311    549.48376 
   66000          132     1901.561    3932.4909   -70087.455   -66154.964   -66086.149    356.75959    309041.66   -474.50403    3.6569171    1541.1259   -370.76372    302.12401     19.39131 
   66200        132.4    1896.1244    3921.2479   -70085.262   -66164.014   -66276.166    -581.1699    309182.77    -860.7115    -1012.116    129.31779    284.70675   -317.10698    2.9776701 
   66400        132.8    1899.1852    3927.5777   -70077.743   -66150.165   -65980.334     880.9828    308857.75    847.15578    699.79959     1095.993    11.062399   -17.906248    609.38086 
   66600        133.2    1924.5307    3979.9932   -70072.199   -66092.206   -66266.466   -902.13155    309483.89   -2054.8187   -1005.2551    353.67915    570.74945    68.508956   -301.73104 
   66800        133.6    1881.8502    3891.7285   -70064.917   -66173.188   -65862.859     1612.123    308414.76    862.38769    1229.8155    2744.1657   -837.61812   -171.82528    514.78294 
   67000          134    1901.3487    3932.0519   -70096.215   -66164.163   -66427.341   -1362.9358     309374.2   -2167.0171   -1109.3012   -812.48921    150.03414   -365.05715    707.18192 
   67200        134.4    1878.6185    3885.0452   -70049.696    -66164.65   -66329.519   -854.17525    309244.48    -714.4028   -1524.0043   -324.11868    -717.9015    815.07735    140.03185 
   67400        134.8    1920.3574    3971.3626   -70132.472   -66161.109   -65768.567    2041.4913    308069.66    2459.6694    1773.6112    1891.1933    1239.9811    740.98029    117.99552 
   67600        135.2    1894.1728    3917.2119   -70141.779   -66224.567   -66485.771   -1354.0439    309071.26   -2124.1208   -372.61846   -1565.3925   -590.34193   -1318.9878   -12.486218 
   67800        135.6    1918.0634    3966.6186   -70118.778   -66152.159   -66049.929     530.6133    308681.92    576.66679   -444.26368    1459.4368     665.5342    1135.5594    859.28211 
   68000          136    1889.5476    3907.6469   -70096.639   -66188.993   -66227.629   -200.45737    308803.22   -1230.1582    859.24993   -230.46382    43.775303    -137.4309   -334.75709 
   68200        136.4    1907.5419    3944.8598   -70094.758   -66149.898   -65859.799    1507.6134    308295.03    2277.5248    1215.5619    1029.7534   -98.971352   -22.167237   -227.25431 
   68400        136.8    1909.5585    3949.0302    -70075.69    -66126.66   -66550.853   -2194.1401    309748.29    -2332.832   -1534.8691   -2714.7192    292.31941    404.04009    176.79546 
   68600        137.2    1886.2415    3900.8098    -70079.69    -66178.88   -65974.285     1062.248    308588.49    23.037966    1409.1444    1754.5616   -699.26059   -411.65258    48.582928 
   68800        137.6    1919.8467    3970.3065   -70054.555   -66084.249   -66519.062   -2248.4189    309838.73   -2559.9959   -2175.8348    -2009.426    91.790064   -44.547289    3.6609154 
   69000          138    1907.6805    3945.1464    -70108.51   -66163.364   -65938.665    1167.4709    308365.34    1165.0861    375.49228    1961.8344   -1.3565912    343.15604    111.99662 
   69200        138.4    1905.1089    3939.8283   -70115.173   -66175.345    -66091.56    434.67765    308823.18    785.79056   -687.71188    1205.9543     429.7148   -157.55773    169.16316 
   69400        138.8    1881.8054    3891.6358   -70133.977   -66242.341   -66532.345   -1503.1489    309109.88   -1014.1575   -1401.6353    -2093.654     136.6077    193.62795     12.75165 
   69600        139.2    1898.2967    3925.7404   -70081.383   -66155.643   -65878.298    1441.0061    308364.94    1610.2297     949.3324    1763.4562    189.20649    577.49182   -176.19849 
   69800        139.6    1901.2817    3931.9135   -70087.109   -66155.196   -66612.485   -2365.6682    309704.04   -2626.3222   -2277.5819   -2193.1004   -632.12403    428.03585    478.93654 
   70000          140     1908.252    3946.3282   -70109.704   -66163.375   -66014.924    770.46451    308703.07    1156.1352    1258.4684   -103.21009    124.74472    -280.3133   -18.240448 
   70200        140.4    1903.8454    3937.2153   -70099.729   -66162.514   -66067.169    494.82424    308715.43    4.5730439     365.5471    1114.3526    1215.8073    -345.8443   -137.02954 
   70400        140.8    1906.6309    3942.9758   -70077.609   -66134.634   -65838.457     1536.878     308760.3    2342.1936    1114.3819    1154.0586   -286.25456    263.08847    621.42327 
   70600        141.2    1929.2255    3989.7021   -70082.052    -66092.35   -66346.361   -1315.4453    309379.23   -1132.9381   -487.52177   -2325.8761   -373.07474    1060.3741   -29.915039 
   70800        141.6    1910.5438    3951.0678   -70073.906   -66122.838   -66070.276    272.69791    308820.66    668.84866   -647.63771    796.88277   -36.326716   -383.68998    292.78483 
   71000          142    1902.3393    3934.1006   -70100.135   -66166.035   -65713.511    2352.3905    308206.56    2630.4383     1371.773    3054.9602   -329.68884   -207.42192   -462.85314 
   71200        142.4    1919.7655    3970.1386    -70081.46   -66111.322   -65944.157    867.42988    308760.18    691.02426    1963.3932   -52.127833   -282.02175   -86.058835    250.95931 
   71400        142.8    1919.3191    3969.2153   -70049.168   -66079.953   -66453.431   -1930.9761    309883.43   -1722.1277   -2308.1274   -1762.6731   -835.96964   -628.88249   -986.50864 
   71600        143.2    1900.9306    3931.1873   -70110.722   -66179.535   -65780.274    2076.2766    308092.84      2609.27    1752.3859     1867.174     788.1315    72.757949   -305.58132 
   71800        143.6    1901.1525    3931.6462    -70059.53   -66127.883   -66207.953   -414.81246    309260.98   -1196.4019    335.49202   -383.52754   -721.93834   -53.092314   -32.279162 
   72000          144    1891.5888    3911.8682    -70108.99   -66197.122   -66197.881   -3.9413797     308736.1   -1348.2568   -61.077641    1397.5103   -959.04563   -346.06817   -246.95165 
   72200        144.4    1905.4253    3940.4826   -70102.614   -66162.132   -65901.587     1353.901    308322.76    2156.1835    2219.9756   -314.45608   -10.066777   -685.26792   -718.63377 
   72400        144.8    1909.6839    3949.2895   -70091.364   -66142.075   -66131.531      54.6767    308965.43   -471.33736    1009.9907   -374.62325   -60.975915    70.348899    54.920336 
   72600        145.2    1884.6628     3897.545   -70109.832   -66212.288   -66473.402   -1352.6859     309274.3    163.19134   -1787.3909   -2433.8581   -270.24067   -126.27929    128.93894 
   72800        145.6    1898.3509    3925.8523   -70113.937   -66188.085   -66240.578   -272.29094    308874.84   -682.58669      161.158   -295.44414    246.50133   -258.54274   -20.220392 
   73000          146     1886.715     3901.789   -70070.966   -66169.177   -65906.271     1365.195    308542.93    901.75601    1905.8662    1287.9627   -31.137041   -71.400678    468.68611 
   73200        146.4    1918.3156    3967.1402    -70041.04     -66073.9   -66126.329   -271.43864    309466.87    674.83898   -1214.5575   -274.59737   -485.35115   -54.943749   -11.855963 
   73400        146.8    1916.0545    3962.4641    -70094.46   -66131.996   -66126.489    28.565851    308858.14    310.04461    185.27121   -409.61826   -105.45278    -452.6223    978.14286 
   73600        147.2    1900.9835    3931.2967   -70104.727    -66173.43   -66343.973   -883.59502    309236.35   -1352.1309   -1517.1997    218.54555    -829.3924   -288.90561    977.21999 
   73800        147.6     1884.229    3896.6478   -70117.219   -66220.571   -65928.466    1518.9548    308108.54    1489.2571    2057.3333    1010.2741    847.44241      201.467   -191.19775 
   74000          148     1888.866    3906.2374   -70077.872   -66171.635   -66213.579   -217.36337    309171.36   -682.00599   -171.26543    201.18132   -721.54205    -580.3631    7.4070883 
   74200        148.4    1906.6458    3943.0066   -70109.512   -66166.505   -66459.559   -1517.6782     309369.9   -2820.1013    -1643.098   -89.835451   -72.810261   -661.60169    32.489717 
   74400        148.8    1864.4252    3855.6929    -70092.12   -66236.427   -66670.263   -2244.6659    309659.47   -3102.3867   -2265.0332   -1366.5778     97.37525   -237.34152    659.42245 
   74600        149.2     1924.103    3979.1086   -70115.482   -66136.373   -65896.454    1246.1065    308475.06    1127.9805    1777.7005    832.63846   -1121.5355   -920.12404     420.7018 
   74800        149.6    1892.8252    3914.4252   -70069.175    -66154.75   -65993.831    835.21361    308687.01     1781.716   -102.46556    826.39034   -158.43767     458.5311    208.95519 
   75000          150    1901.4436    3932.2482   -70146.807   -66214.558   -66545.266   -1712.7105    309364.89   -1894.2833   -1503.6079   -1740.2402   -165.03209    563.87977    492.86557 
   75200        150.4    1895.0073    3918.9378   -70178.056   -66259.118   -65878.603    1980.3258    307854.15     2465.353    1418.1156    2057.5088   -641.42169   -284.09076   -342.67049 
   75400        150.8    1904.1225    3937.7883    -70098.27   -66160.482   -66456.227   -1531.7769    309337.62   -1185.2009   -1871.9322   -1538.1977   -442.10358   -756.72821     1128.659 
   75600        151.2    1896.5469    3922.1218   -70075.356   -66153.234   -66106.915    240.32112    308805.03    266.21105    7.4912154     447.2611   -773.03541    758.62001   -682.09935 
   75800        151.6    1925.2893    3981.5619   -70081.205   -66099.643    -66146.33   -242.00305    309090.93   -286.45383   -567.86727    128.31195    840.14896   -403.45389   -583.22652 
   76000          152    1896.3503     3921.715   -70090.375    -66168.66   -66402.733   -1212.9431    309186.36   -2010.4771   -1319.1898   -309.16236    39.099489   -530.48106   -311.63764 
   76200        152.4    1906.8823    3943.4955   -70067.862   -66124.367   -66029.161    493.60542    309024.68     -37.7693    1095.8685    422.71711    98.814569   -324.37069   -210.12581 
   76400        152.8    1892.1477     3913.024   -70044.996   -66131.972   -66382.581   -1297.4285     309472.7   -2663.7662   -1023.1309   -205.38842    649.09718    128.80383   -106.28248 
   76600        153.2      1892.88    3914.5384   -70089.923   -66175.384   -65823.322    1828.7814    308438.57    2482.6226    2020.3527    983.36902   -233.97316    381.85657   -508.73421 
   76800        153.6     1918.176    3966.8513   -70053.999   -66087.148   -66504.789   -2159.6651    309832.54   -2421.2381   -2432.1063   -1625.6508   -1484.0206    240.92622    1021.3734 
   77000          154    1912.1376    3954.3638   -70097.022   -66142.658   -65678.593    2412.4048    308204.76    2149.4202    3657.0962    1430.6981    532.49165   -165.78556    261.63307 
   77200        154.4    1877.9971    3883.7601   -70067.287   -66183.527   -66641.385   -2368.1378       309766   -1718.9297   -2616.8696   -2768.6142    555.77746   -691.47094   -480.25367 
   77400        154.8    1914.8598    3959.9934   -70073.442   -66113.448   -65914.364    1033.1003    308747.88    193.97092    1928.3973    976.93269    1008.0341   -603.61574   -729.32684 
   77600        155.2    1910.5083    3950.9943   -70084.382   -66133.388    -66448.12   -1629.5021    309454.09   -2099.5169   -2382.0449   -406.94437    401.61715   -684.14905   -389.43466 
   77800        155.6     1897.133    3923.3338    -70121.98   -66198.646   -66148.935    258.09543    308592.96    558.43637    301.13622   -85.286298   -321.21429    111.21847   -232.18897 
   78000          156      1920.32    3971.2852   -70086.828   -66115.543   -66259.776   -747.64536    309086.13   -432.87014   -1828.6717    18.605773   -3.5137635    172.19725    212.98207 
   78200        156.4    1895.3402    3919.6262   -70079.455   -66159.829   -65708.557    2344.7593    308354.49    2920.0377    2029.8114    2084.4288    174.38983    512.35448    138.02439 
   78400        156.8    1892.3978    3913.5412    -70075.14   -66161.599   -66752.499   -3052.7263    310124.81   -2733.0687   -3474.6078   -2950.5026   -658.73067    -75.68972   -489.56106 
   78600        157.2    1896.2359    3921.4785   -70077.081   -66155.603   -66300.792   -752.01265    309328.39   -528.66491   -455.21225   -1272.1608    185.32129    253.67878   -115.39087 
   78800        157.6    1885.8589    3900.0185    -70121.55   -66221.532   -65924.737    1542.7651    308224.25    514.88187    1480.5317    2632.8817    -39.49863    -1182.919    645.33345 
   79000          158    1903.1506    3935.7784   -70086.829   -66151.051   -66456.626   -1581.9223    309487.68   -2716.9376    286.84098   -2315.6702    192.13548    -126.8583    216.41967 
   79200        158.4    1898.5185    3926.1991   -70139.787   -66213.588   -66062.759    783.35746    308484.26    1525.7293   -705.39706    1529.7402    644.24837    833.44709   -149.13929 
   79400        158.8    1886.3352    3901.0035   -70134.532   -66233.528   -66474.865   -1251.0515    309071.22   -1169.0792   -781.62358   -1802.4517   -695.72749    883.25067   -931.13158 
   79600        159.2     1907.311    3944.3821   -70119.526   -66175.144     -66250.6   -391.28401    308967.97   -991.33495    -231.6865    49.169434   -54.191934   -3.3874371    -799.1287 
   79800        159.6    1908.2972    3946.4218   -70037.901   -66091.479   -65980.207     576.8901    309031.63   -717.15587    1825.7245    622.10172   -689.74762   -150.10995    336.87893 
   80000          160    1911.6243    3953.3023   -70090.711   -66137.409   -66535.542   -2060.0938    309635.99   -1365.3517   -2189.4241   -2625.5056    39.057353    84.473713    699.41765 
   80200        160.4    1887.1485    3902.6854    -70086.84   -66184.154   -66008.575    911.72324    308546.61    1483.6947    1251.7029  -0.22792575    211.47042   -340.72834   -593.13314 
   80400        160.8    1903.0895     3935.652   -70139.941   -66204.289   -66540.952   -1744.8361    309137.61   -1809.8209   -911.95668   -2512.7308    403.69095   -188.21644   -1198.3674 
   80600        161.2    1892.5673    3913.8918   -70141.109   -66227.217   -65936.226    1513.6586    308008.45    1234.5168    1199.9126    2106.5465    461.74255    278.95877   -430.55864 
   80800        161.6    1890.2946    3909.1917    -70037.27   -66128.078   -66382.481   -1317.5778    309354.13   -1716.7532   -292.64908   -1943.3312    231.58144   -667.97261    408.87881 
   81000          162    1907.0974    3943.9405   -70075.311    -66131.37   -65960.834    885.54775    308542.13    2050.9302    262.23989    343.47316    314.28829     521.2187   -166.68873 
   81200        162.4    1885.3961    3899.0614   -70121.907   -66222.846   -66723.946   -2594.5143    309441.88   -2598.9346   -2628.0833   -2556.5251    652.41787   -618.38305    88.253435 
   81400        162.8    1896.9304    3922.9149   -70176.694   -66253.779   -66344.226   -469.61804    308574.09    425.79258   -335.79662   -1498.8501   -599.21602   -34.151868    431.39733 
   81600        163.2    1900.3034    3929.8904   -70081.661    -66151.77   -66013.802    716.16972    308654.57   -46.663204    576.66889    1618.5035   -695.83226   -101.44978   -201.54726 
   81800        163.6    1920.6855    3972.0411   -70088.029   -66115.988   -66499.216   -1982.9866    309632.73   -1929.9076    -2036.672   -1982.3803    744.14734   -479.33006   -1345.1491 
[...]
 3230600       6086.2    340.43917    704.03946   -75466.009   -74761.969    -74572.35    1081.7941    280833.17    1658.3295    339.38467    1247.6681    115.84631    244.50076   -122.49896 
 3230800       6086.6    337.05614    697.04324   -75468.938   -74771.894   -74958.272   -1061.2248    281381.46   -454.84474   -1632.5552   -1096.2743    393.50233    90.246249   -121.56882 
 3231000         6087    335.54121    693.91031   -75473.305   -74779.395   -74657.498    695.23789    280911.49    1070.8003    43.745593    971.16777    254.22674    265.39932    341.63611 
 3231200       6087.4    337.02138    696.97135   -75465.603   -74768.632   -74864.914   -548.51215    281233.37   -124.99113   -859.03847   -661.50685    453.17969    197.38631   -114.76199 
 3231400       6087.8    335.92122    694.69619   -75478.065   -74783.368   -74776.024     41.86759    281043.71    437.91522   -351.54342    39.230969    233.27099    312.82972    38.603751 
 3231600       6088.2    336.47139    695.83397   -75478.198   -74782.364   -74720.816    350.94397    280988.86    1192.3041   -267.17197    127.69982    405.30106    59.944027    8.8305049 
 3231800       6088.6    338.61675    700.27063    -75475.37   -74775.099   -74920.726   -829.51274    281273.96   -225.29677   -1309.6697   -953.57173    376.82696    244.61447   -226.58627 
 3232000         6089    334.12231    690.97599   -75475.166    -74784.19   -74637.828    834.93832    280855.32    1311.2269    444.95389    748.63419    316.00923    56.882898    97.445686 
 3232200       6089.4    331.42377    685.39532   -75478.102   -74792.707    -75015.71   -1269.6546    281407.72    -986.0045   -1445.0934   -1377.8658    520.66704    111.01367    94.474302 
 3232400       6089.8    334.79324    692.36348   -75473.833   -74781.469   -74641.275    799.72371    280866.07    1643.8969     279.2614    476.01283    205.75014    422.56902   -334.26071 
 3232600       6090.2    337.02703    696.98304   -75477.644   -74780.661   -74885.806   -598.96563    281251.33   0.67242584   -1363.0775   -434.49181    651.90365    416.23796   -124.19632 
 3232800       6090.6    332.41399    687.44312   -75482.558   -74795.115   -74670.397    711.39661    280885.49    1439.1135     59.25495     635.8214     288.7859    352.82654   -61.383883 
 3233000         6091    335.12949    693.05887   -75475.068   -74782.009   -74782.881   -4.9687374    281075.34     619.6303   -715.99562    81.459106    523.88866    485.23326   -255.39716 
 3233200       6091.4     334.0371    690.79977   -75472.354   -74781.554   -74870.822   -508.55301    281235.17    107.35521   -876.90137   -756.11288     485.8386    229.58122   -71.255128 
 3233400       6091.8    334.08923    690.90757   -75482.056   -74791.148   -74688.413    585.96842    280902.26    1033.6757   -111.96087    836.19042    357.92581    360.14206   -167.90304 
 3233600       6092.2    333.75691    690.22033   -75489.321   -74799.101   -74943.418   -822.10875    281254.55   -383.38006   -1074.9906   -1007.9556    274.97352     186.0156     97.67885 
 3233800       6092.6    330.05479    682.56422    -75491.63   -74809.066   -74590.778    1245.9183     280705.3    1735.5238    705.44953    1296.7817    350.88231    392.97004   -264.33054 
 3234000         6093    330.20326    682.87126   -75478.595   -74795.724   -74918.141   -697.37079    281247.23   -333.47151   -808.50949   -950.13136    383.49369    95.535812    -15.75581 
 3234200       6093.4    334.54858    691.85752   -75490.594   -74798.737   -74544.429     1451.847    280639.39    1894.6036    1066.5431    1394.3943     530.8365    125.08292    9.9249264 
 3234400       6093.8    329.39562    681.20103   -75490.851    -74809.65   -74854.653   -256.53033    281068.31    345.16269    -952.4302   -162.32349    198.37225     192.9104    43.403576 
 3234600       6094.2    332.26159    687.12796    -75484.73   -74797.603   -74809.363   -67.050233    281014.23    188.76275   -355.42713   -34.486319    133.61662    240.74908   -260.43666 
 3234800       6094.6     331.6299    685.82159   -75490.404   -74804.583   -74744.914    340.29385     280931.8      935.062    -76.87599    162.69555    100.14793     5.956815   -8.3926914 
 3235000         6095    330.97454    684.46628   -75495.146    -74810.68   -74951.249   -800.89982    281203.13   -397.97718   -1459.8861   -544.83616    378.34068    110.55868    169.45375 
 3235200       6095.4    328.83992    680.05183    -75484.58   -74804.528   -74640.671    934.98411    280782.89    1446.5471    587.66979    770.73542      72.3173    178.04402    -328.9123 
 3235400       6095.8    328.55955    679.47201   -75484.459   -74804.987   -74954.081    -849.4064    281225.54   -336.89217    -1530.759   -680.56807    434.93577    479.44134   -445.38576 
 3235600       6096.2    327.47984    677.23913   -75491.186   -74813.947   -74608.965    1169.9668    280706.15    1557.9954     790.9455    1160.9596    538.60428    341.40154    24.433536 
 3235800       6096.6    327.83237    677.96818   -75491.293   -74813.325   -74909.566    -548.4357    281154.47    -184.3575   -1474.8718    13.922251    411.88185     345.6528   -191.76427 
 3236000         6097    326.33387    674.86923   -75497.138   -74822.269   -74765.631    323.06687    280884.38    768.49739   -167.23831    367.94152    152.19889    74.636026   -92.185793 
 3236200       6097.4    330.76793    684.03901   -75496.451   -74812.412   -74799.019    76.377622    280950.25    1113.4061    -897.5791    13.305912    371.40108    309.02963    29.222029 
 3236400       6097.8    330.29699    683.06509   -75496.952   -74813.887   -74884.408   -401.99346    281067.29    112.74017   -1209.2175   -109.50311    311.90515    176.15598    83.811655 
 3236600       6098.2    326.29203     674.7827   -75498.818   -74824.036   -74646.228    1014.8512    280710.71    1727.5874    670.80968    646.15644    651.23209    232.36169     170.5843 
 3236800       6098.6    329.50864    681.43477   -75494.715    -74813.28   -74867.794   -310.71303    281098.62    511.13512   -834.34608   -608.92812    495.65357    298.68793   -548.78323 
 3237000         6099    325.20779    672.54046    -75500.64   -74828.099   -74710.206    672.73382    280773.18    1547.1048    144.53827    326.55846     161.1558    148.86586     179.6675 
 3237200       6099.4    325.85791    673.88493   -75500.717   -74826.832   -75036.509   -1194.5247     281232.2   -879.29809    -1743.932    -960.3439    247.91393    215.23706   -218.21552 
 3237400       6099.8    328.90476    680.18591   -75497.554   -74817.369   -74697.145    685.95185    280805.82    1081.1024    214.66089    762.09224    39.305423    474.79658    337.99521 
 3237600       6100.2     327.8293    677.96183   -75501.616   -74823.654   -74947.387   -705.18431    281122.34   -216.00922   -1025.3387   -874.20496    16.385127    559.34417   -149.36657 
 3237800       6100.6    326.59236     675.4038   -75509.112   -74833.708    -74789.85    250.19158    280856.56    803.15973   -221.43572    168.85073    264.88813    198.57966    26.291752 
 3238000         6101    322.64229    667.23493   -75494.044   -74826.809   -74803.974    130.23824       280918    730.60632    -249.3033   -90.588287    230.09702    383.37766    84.848128 
 3238200       6101.4    329.45091    681.31537    -75501.94   -74820.625   -74946.464    -717.1657     281129.4   -252.77374   -1022.0303   -876.69308    356.74605    239.50159   -409.13239 
 3238400       6101.8    321.56348    665.00391   -75501.753   -74836.749    -74781.96    312.58468    280823.21    1056.8345   -69.048527   -50.031905    314.41729    38.761673    64.641873 
 3238600       6102.2    318.65416    658.98734   -75500.844   -74841.856    -74982.35   -800.67517    281133.07   -289.17668   -1527.5078   -585.34103    40.857308    289.98895   -63.419184 
 3238800       6102.6    319.47782    660.69069   -75504.261   -74843.571   -74640.148    1161.3835    280629.19    1700.2116    881.26292    902.67595    438.33619    511.37948   -317.48037 
 3239000         6103    323.67342    669.36734   -75500.598    -74831.23   -74951.352   -684.67743    281090.95   -233.39281   -1252.8015   -567.83793     426.9861    190.26252   -33.013968 
 3239200       6103.4    322.07957    666.07121    -75509.49   -74843.419    -74775.19     389.3328    280775.82    878.11268   -52.001727    341.88745    262.72383    183.32509   -68.543053 
 3239400       6103.8    321.76489    665.42044   -75511.379   -74845.959    -74865.54   -111.67471    280920.43    558.90201    -858.1173   -35.808848    359.72217    211.38065    255.86475 
 3239600       6104.2    323.08482    668.15009   -75512.353   -74844.203   -74886.823   -243.03711    280967.19    482.24028   -866.42245   -344.92915    322.91971    188.81029   -277.51044 
 3239800       6104.6    319.89856     661.5608   -75505.708   -74844.147   -74684.682    910.33622    280655.57     1800.069    155.09369    775.84597    100.43498    297.95362   -35.916373 
 3240000         6105    316.08663     653.6776   -75509.364   -74855.686   -74935.388   -454.45152    280989.63    518.66888   -700.85789   -1181.1655    149.78999    316.31359   -231.11249 
 3240200       6105.4    322.71029    667.37554   -75512.176     -74844.8   -74739.273    602.18112    280766.35    1316.5134    179.28562    310.74431    295.20267     417.7712   -14.582055 
 3240400       6105.8     320.4613    662.72456   -75509.261   -74846.537   -75065.584   -1248.0915    281190.89    -565.2872   -1967.1534   -1211.8338   -70.143733     296.1029   -38.019196 
 3240600       6106.2    321.17451    664.19951   -75518.796   -74854.596   -74727.751    724.08567    280668.79    1279.4927     347.6822    545.08213    237.77059    458.26697    38.326991 
 3240800       6106.6    320.05723    661.88894    -75519.52   -74857.631   -74944.361   -494.47978       281016    238.29097   -873.07271   -848.65761    456.12299    267.31241   -123.10317 
 3241000         6107    315.48629    652.43607   -75519.918   -74867.482   -74822.367    257.44616    280764.54    959.06004   -164.66307   -22.058499    297.75401    248.97643    -55.12189 
 3241200       6107.4    318.47447    658.61572   -75513.021   -74854.405   -74834.908    111.22756    280846.89    542.77505    -608.5992    399.50684    227.28458    638.36282   -253.92175 
 3241400       6107.8    318.49548    658.65919   -75517.133   -74858.474   -74974.795   -663.14265    281036.15    58.014018   -1633.3972   -414.04481    236.30505    682.15835   -283.39695 
 3241600       6108.2    317.44055    656.47755    -75521.19   -74864.713   -74712.697    868.00417     280592.5    1716.3889    261.71969    625.90386    199.81078    136.83085   -183.62638 
 3241800       6108.6    315.99341    653.48481   -75515.736   -74862.251   -75034.393   -981.09086    281117.16   -262.70206   -1498.8582   -1181.7123    137.13292    423.32578   -180.33455 
 3242000         6109      318.843    659.37786   -75514.456   -74855.079   -74665.478    1082.5441    280610.75    1721.7053    223.53982    1302.3871    2.0752699    372.18603    158.02956 
 3242200       6109.4    315.28543     652.0207    -75521.23    -74869.21   -74984.822   -659.21521    280988.55    59.651651   -1218.7935    -818.5038    266.09524    41.757681   -606.24457 
 3242400       6109.8    315.93722    653.36861   -75525.753   -74872.384   -74776.136    549.37793    280693.86    1727.5566   -63.195171   -16.227692    9.8483782    358.78211   -164.90152 
 3242600       6110.2    318.63438    658.94644   -75517.622   -74858.675    -74883.85   -143.60022    280877.15    780.95223   -674.68337   -537.06952    141.06835    626.93043   -248.99908 
 3242800       6110.6     313.7292    648.80235     -75521.6   -74872.798   -74910.905   -217.33624    280925.52    551.65054   -591.08861   -612.57065    165.10808    515.07767   -176.80843 
 3243000         6111     316.0418     653.5849   -75531.888   -74878.304   -74747.961    744.21919    280605.75    1549.0135    74.795162    608.84894    28.128325    268.78218    21.131071 
 3243200       6111.4    311.39857    643.98255   -75521.486   -74877.504   -75033.124   -887.08646    281067.24    -213.3553   -1493.5816   -954.32248   -84.255736    127.46176    -372.1037 
 3243400       6111.8     316.2866    654.09116   -75523.128   -74869.037   -74675.072     1107.681     280556.2    1513.8185     658.4832    1150.7412    405.02541    322.49889   -146.85897 
 3243600       6112.2      309.082     639.1918   -75524.808   -74885.616   -75035.746    -855.9412    281016.43    -4.583267   -1531.0147   -1032.2256   -34.878285    365.97824   -76.953482 
 3243800       6112.6    314.75089    650.91524   -75531.167   -74880.252   -74793.917    492.80366    280685.76    1311.6332   -375.14976    541.92754    242.87294    272.99432    -21.51106 
 3244000         6113    314.57032    650.54181   -75521.128   -74870.586   -74959.959   -509.67476     280944.5   -30.806269   -1082.4822   -415.73583     136.1837    241.96546   -56.965153 
 3244200       6113.4    313.27632    647.86578    -75532.82   -74884.955   -74891.118   -35.171778    280770.32    456.75799   -481.55658    -80.71675    357.31799    239.21874   -171.23838 
 3244400       6113.8    313.29383    647.90199   -75537.188   -74889.286   -74794.059    543.65401    280638.36    1206.1325   -334.88082    759.71032    86.369443    133.71477   -232.08462 
 3244600       6114.2    309.10054    639.23013   -75532.805   -74893.575   -75084.701     -1089.47    281070.79   -358.41231   -1822.4866    -1087.511    615.01017    222.05388   -66.722506 
 3244800       6114.6     309.8381    640.75543   -75525.907   -74885.152   -74786.343    564.04927    280665.83     1315.702   -102.33094    478.77673   -30.630588    -10.98393    90.583455 
 3245000         6115    308.03738     637.0315   -75528.329   -74891.297    -75166.15   -1566.0073    281200.59   -1041.5866   -2035.1901   -1621.2451    285.53114    496.65092   -75.360057 
 3245200       6115.4    309.54879    640.15713   -75535.682   -74895.525   -74789.924    602.96208    280600.39    1630.4819   -203.82152    382.22588    362.33746    284.59152   -86.511249 
 3245400       6115.8    309.13919    639.31007   -75528.021   -74888.711   -74963.197   -424.79933    280930.43     351.5888   -949.20973   -676.77705    119.63729   -30.634879   -81.988594 
 3245600       6116.2    313.89274    649.14056   -75542.434   -74893.293    -74888.58    26.902748    280731.99    843.04966   -302.90094   -459.44047    146.93461    444.18189   -182.62355 
 3245800       6116.6    307.45188    635.82066   -75538.208   -74902.388   -74868.954    190.80364     280742.3    1044.0758   -610.29288    138.62805    217.30076    137.76755   -348.53356 
 3246000         6117    310.88271    642.91572   -75536.949   -74894.033    -75019.12   -713.29898    280964.11   -90.097903   -1391.5368    -658.2622    346.66524    355.74625   -182.13233 
 3246200       6117.4    308.71765    638.43831   -75532.416   -74893.977   -74703.587    1087.3428    280536.25    2013.7035    690.74682    557.57815    270.00017   -20.685992    -28.37313 
 3246400       6117.8    303.76748     628.2012   -75536.856   -74908.655   -75046.768   -787.52966    280981.22   -98.200819   -1127.8712    -1136.517   -74.472767    404.29284   -118.28807 
 3246600       6118.2    308.82849    638.66753   -75540.042   -74901.374   -74724.104    1012.4819    280516.98    1670.7256    239.95302    1126.7672    211.66816    289.42311   -294.47681 
 3246800       6118.6    307.95208    636.85508   -75537.679   -74900.824   -74972.429   -408.46225    280870.94   -191.68069   -935.37159   -98.334486    402.62062    122.82752    110.52961 
 3247000         6119    306.59857    634.05597   -75547.674   -74913.618     -74908.8    27.496051    280701.28    642.83597   -657.63242    97.284598    288.31943   -46.100801   -1.4898228 
 3247200       6119.4    304.53171    629.78164   -75539.188   -74909.406   -74830.249    451.93556    280624.49    1062.3968    194.73493    98.674901    71.002904    309.59025    342.71806 
 3247400       6119.8    306.66188    634.18691   -75538.022   -74903.835   -75027.101   -703.01498    280924.46    59.615603   -1541.0639   -627.59669    68.560986    220.57197    -5.807398 
 3247600       6120.2    304.79008    630.31595   -75545.969   -74915.653    -74744.37    978.42925    280475.68    1456.3513    551.23897    927.69749    287.47892    226.29312   -201.40429 
 3247800       6120.6    306.34951    633.54092   -75548.935   -74915.394   -75089.428   -992.52019    280935.09   -530.97802   -1146.7609   -1299.8216    273.93484    51.597813    53.572935 
 3248000         6121    305.63825       632.07   -75541.291   -74909.221   -74822.792    493.48195    280606.22    913.19929    104.90956      462.337    24.442184    83.636391   -232.25803 
 3248200       6121.4    303.63363    627.92438   -75549.419   -74921.495   -75001.419   -456.04344    280790.13     316.1439    -983.1947   -701.07952    304.83316    167.87483   -111.11761 
 3248400       6121.8    302.72924    626.05408   -75548.865    -74922.81   -74923.722   -5.2049716    280733.77    732.56894   -686.46803   -61.715821    92.689978    451.46658   -147.96374 
 3248600       6122.2    306.31691    633.47349    -75542.05   -74908.576   -74862.396    263.61466    280673.13    719.86562   -99.029569    170.00792    468.51023    429.15149   -410.28545 
 3248800       6122.6    301.35725    623.21676   -75546.644   -74923.427   -75124.927   -1148.9561     280984.7   -717.81255   -1968.1301   -760.92573    54.002834    455.98877   -45.320746 
 3249000         6123     302.6922    625.97748   -75554.358   -74928.381   -74851.261    440.35162    280591.62    1284.5175   -340.12633    376.66368    284.61765    298.60548    56.807331 
 3249200       6123.4    300.61706    621.68601   -75548.558   -74926.872   -75145.295   -1245.4471     280984.7    -840.8765   -1687.3628   -1208.1021    229.14512    480.83561    225.24684 
 3249400       6123.8    300.02084    620.45301   -75543.884   -74923.431   -74772.926    859.74115    280475.63    1440.4949    191.78976    946.93882    252.75445    458.60814   -314.03213 
 3249600       6124.2    298.37509    617.04954   -75555.015   -74937.966   -75051.915   -650.15881     280804.1   -181.73851     -994.627   -774.11091    432.21645    161.04482   -77.570644 
 3249800       6124.6    301.60301    623.72499   -75557.236   -74933.511   -74820.054    648.09537    280480.47    1366.6485   -236.54391    814.18148    381.99247    489.83639   -107.87338 
 3250000         6125    305.02995    630.81202   -75547.244   -74916.432   -74915.108    7.5614692    280693.02    368.02012   -157.31241   -188.02331    489.15168    145.35005     186.1219 
Loop time of 691.605 on 32 procs for 150000 steps with 16000 atoms

Performance: 37.478 ns/day, 0.640 hours/ns, 216.887 timesteps/s
99.9% CPU use with 32 MPI tasks x no OpenMP threads

MPI task timing breakdown:
Section |  min time  |  avg time  |  max time  |%varavg| %total
---------------------------------------------------------------
Pair    | 523.18     | 544.28     | 571.09     |  50.9 | 78.70
Neigh   | 5.951      | 6.3767     | 7.2225     |  14.4 |  0.92
Comm    | 85.225     | 111.35     | 133.58     | 113.7 | 16.10
Output  | 0.14659    | 0.14897    | 0.1544     |   0.5 |  0.02
Modify  | 22.403     | 24.274     | 27.074     |  28.5 |  3.51
Other   |            | 5.177      |            |       |  0.75

Nlocal:    500 ave 511 max 487 min
Histogram: 3 1 1 2 4 6 6 6 2 1
Nghost:    2654.59 ave 2684 max 2633 min
Histogram: 1 3 8 3 8 5 1 1 1 1
Neighs:    36729.9 ave 38526 max 35015 min
Histogram: 1 3 2 5 4 4 8 4 0 1

Total # of neighbors = 1175358
Ave neighs/atom = 73.4599
Neighbor list builds = 2187
Dangerous builds = 0
Total wall time: 4:10:18
