converted from bop software 

        16000 atoms
            3 atom types
-32.500000 32.500000 xlo xhi
-32.500000 32.500000 ylo yhi
-32.500000 32.500000 zlo zhi

Atoms

1 1 -32.50000000 -32.50000000 -32.50000000
2 2 -30.87500000 -30.87500000 -30.87500000
3 2 -32.50000000 -32.50000000 -29.25000000
4 2 -30.87500000 -30.87500000 -27.62500000
5 1 -32.50000000 -32.50000000 -26.00000000
6 2 -30.87500000 -30.87500000 -24.37500000
7 2 -32.50000000 -32.50000000 -22.75000000
8 1 -30.87500000 -30.87500000 -21.12500000
9 2 -32.50000000 -32.50000000 -19.50000000
10 2 -30.87500000 -30.87500000 -17.87500000
11 1 -32.50000000 -32.50000000 -16.25000000
12 1 -30.87500000 -30.87500000 -14.62500000
13 3 -32.50000000 -32.50000000 -13.00000000
14 2 -30.87500000 -30.87500000 -11.37500000
15 1 -32.50000000 -32.50000000 -9.75000000
16 3 -30.87500000 -30.87500000 -8.12500000
17 1 -32.50000000 -32.50000000 -6.50000000
18 1 -30.87500000 -30.87500000 -4.87500000
19 2 -32.50000000 -32.50000000 -3.25000000
20 2 -30.87500000 -30.87500000 -1.62500000
21 2 -32.50000000 -32.50000000 0.00000000
22 1 -30.87500000 -30.87500000 1.62500000
23 1 -32.50000000 -32.50000000 3.25000000
24 2 -30.87500000 -30.87500000 4.87500000
25 3 -32.50000000 -32.50000000 6.50000000
26 1 -30.87500000 -30.87500000 8.12500000
27 1 -32.50000000 -32.50000000 9.75000000
28 2 -30.87500000 -30.87500000 11.37500000
29 1 -32.50000000 -32.50000000 13.00000000
30 1 -30.87500000 -30.87500000 14.62500000
31 1 -32.50000000 -32.50000000 16.25000000
32 2 -30.87500000 -30.87500000 17.87500000
33 3 -32.50000000 -32.50000000 19.50000000
34 2 -30.87500000 -30.87500000 21.12500000
35 2 -32.50000000 -32.50000000 22.75000000
36 1 -30.87500000 -30.87500000 24.37500000
37 2 -32.50000000 -32.50000000 26.00000000
38 2 -30.87500000 -30.87500000 27.62500000
39 2 -32.50000000 -32.50000000 29.25000000
40 2 -30.87500000 -30.87500000 30.87500000
41 2 -32.50000000 -29.25000000 -32.50000000
42 1 -30.87500000 -27.62500000 -30.87500000
43 2 -32.50000000 -29.25000000 -29.25000000
44 2 -30.87500000 -27.62500000 -27.62500000
45 1 -32.50000000 -29.25000000 -26.00000000
46 3 -30.87500000 -27.62500000 -24.37500000
47 1 -32.50000000 -29.25000000 -22.75000000
48 1 -30.87500000 -27.62500000 -21.12500000
49 1 -32.50000000 -29.25000000 -19.50000000
50 3 -30.87500000 -27.62500000 -17.87500000
51 2 -32.50000000 -29.25000000 -16.25000000
52 2 -30.87500000 -27.62500000 -14.62500000
53 1 -32.50000000 -29.25000000 -13.00000000
54 2 -30.87500000 -27.62500000 -11.37500000
55 1 -32.50000000 -29.25000000 -9.75000000
56 1 -30.87500000 -27.62500000 -8.12500000
57 1 -32.50000000 -29.25000000 -6.50000000
58 1 -30.87500000 -27.62500000 -4.87500000
59 1 -32.50000000 -29.25000000 -3.25000000
60 1 -30.87500000 -27.62500000 -1.62500000
61 2 -32.50000000 -29.25000000 0.00000000
62 1 -30.87500000 -27.62500000 1.62500000
63 2 -32.50000000 -29.25000000 3.25000000
64 1 -30.87500000 -27.62500000 4.87500000
65 1 -32.50000000 -29.25000000 6.50000000
66 2 -30.87500000 -27.62500000 8.12500000
67 2 -32.50000000 -29.25000000 9.75000000
68 2 -30.87500000 -27.62500000 11.37500000
69 2 -32.50000000 -29.25000000 13.00000000
70 1 -30.87500000 -27.62500000 14.62500000
71 2 -32.50000000 -29.25000000 16.25000000
72 1 -30.87500000 -27.62500000 17.87500000
73 1 -32.50000000 -29.25000000 19.50000000
74 1 -30.87500000 -27.62500000 21.12500000
75 2 -32.50000000 -29.25000000 22.75000000
76 2 -30.87500000 -27.62500000 24.37500000
77 2 -32.50000000 -29.25000000 26.00000000
78 2 -30.87500000 -27.62500000 27.62500000
79 2 -32.50000000 -29.25000000 29.25000000
80 2 -30.87500000 -27.62500000 30.87500000
81 2 -32.50000000 -26.00000000 -32.50000000
82 1 -30.87500000 -24.37500000 -30.87500000
83 2 -32.50000000 -26.00000000 -29.25000000
84 3 -30.87500000 -24.37500000 -27.62500000
85 2 -32.50000000 -26.00000000 -26.00000000
86 2 -30.87500000 -24.37500000 -24.37500000
87 2 -32.50000000 -26.00000000 -22.75000000
88 1 -30.87500000 -24.37500000 -21.12500000
89 1 -32.50000000 -26.00000000 -19.50000000
90 1 -30.87500000 -24.37500000 -17.87500000
91 2 -32.50000000 -26.00000000 -16.25000000
92 2 -30.87500000 -24.37500000 -14.62500000
93 2 -32.50000000 -26.00000000 -13.00000000
94 2 -30.87500000 -24.37500000 -11.37500000
95 1 -32.50000000 -26.00000000 -9.75000000
96 2 -30.87500000 -24.37500000 -8.12500000
97 1 -32.50000000 -26.00000000 -6.50000000
98 2 -30.87500000 -24.37500000 -4.87500000
99 1 -32.50000000 -26.00000000 -3.25000000
100 2 -30.87500000 -24.37500000 -1.62500000
101 1 -32.50000000 -26.00000000 0.00000000
102 2 -30.87500000 -24.37500000 1.62500000
103 1 -32.50000000 -26.00000000 3.25000000
104 1 -30.87500000 -24.37500000 4.87500000
105 2 -32.50000000 -26.00000000 6.50000000
106 1 -30.87500000 -24.37500000 8.12500000
107 2 -32.50000000 -26.00000000 9.75000000
108 1 -30.87500000 -24.37500000 11.37500000
109 2 -32.50000000 -26.00000000 13.00000000
110 2 -30.87500000 -24.37500000 14.62500000
111 2 -32.50000000 -26.00000000 16.25000000
112 2 -30.87500000 -24.37500000 17.87500000
113 1 -32.50000000 -26.00000000 19.50000000
114 2 -30.87500000 -24.37500000 21.12500000
115 3 -32.50000000 -26.00000000 22.75000000
116 1 -30.87500000 -24.37500000 24.37500000
117 1 -32.50000000 -26.00000000 26.00000000
118 1 -30.87500000 -24.37500000 27.62500000
119 1 -32.50000000 -26.00000000 29.25000000
120 2 -30.87500000 -24.37500000 30.87500000
121 2 -32.50000000 -22.75000000 -32.50000000
122 1 -30.87500000 -21.12500000 -30.87500000
123 1 -32.50000000 -22.75000000 -29.25000000
124 1 -30.87500000 -21.12500000 -27.62500000
125 2 -32.50000000 -22.75000000 -26.00000000
126 1 -30.87500000 -21.12500000 -24.37500000
127 2 -32.50000000 -22.75000000 -22.75000000
128 1 -30.87500000 -21.12500000 -21.12500000
129 2 -32.50000000 -22.75000000 -19.50000000
130 2 -30.87500000 -21.12500000 -17.87500000
131 1 -32.50000000 -22.75000000 -16.25000000
132 2 -30.87500000 -21.12500000 -14.62500000
133 2 -32.50000000 -22.75000000 -13.00000000
134 3 -30.87500000 -21.12500000 -11.37500000
135 1 -32.50000000 -22.75000000 -9.75000000
136 2 -30.87500000 -21.12500000 -8.12500000
137 1 -32.50000000 -22.75000000 -6.50000000
138 2 -30.87500000 -21.12500000 -4.87500000
139 2 -32.50000000 -22.75000000 -3.25000000
140 2 -30.87500000 -21.12500000 -1.62500000
141 2 -32.50000000 -22.75000000 0.00000000
142 2 -30.87500000 -21.12500000 1.62500000
143 1 -32.50000000 -22.75000000 3.25000000
144 1 -30.87500000 -21.12500000 4.87500000
145 2 -32.50000000 -22.75000000 6.50000000
146 1 -30.87500000 -21.12500000 8.12500000
147 1 -32.50000000 -22.75000000 9.75000000
148 1 -30.87500000 -21.12500000 11.37500000
149 2 -32.50000000 -22.75000000 13.00000000
150 2 -30.87500000 -21.12500000 14.62500000
151 1 -32.50000000 -22.75000000 16.25000000
152 2 -30.87500000 -21.12500000 17.87500000
153 2 -32.50000000 -22.75000000 19.50000000
154 1 -30.87500000 -21.12500000 21.12500000
155 2 -32.50000000 -22.75000000 22.75000000
156 2 -30.87500000 -21.12500000 24.37500000
157 1 -32.50000000 -22.75000000 26.00000000
158 2 -30.87500000 -21.12500000 27.62500000
159 3 -32.50000000 -22.75000000 29.25000000
160 1 -30.87500000 -21.12500000 30.87500000
161 2 -32.50000000 -19.50000000 -32.50000000
162 2 -30.87500000 -17.87500000 -30.87500000
163 1 -32.50000000 -19.50000000 -29.25000000
164 3 -30.87500000 -17.87500000 -27.62500000
165 2 -32.50000000 -19.50000000 -26.00000000
166 2 -30.87500000 -17.87500000 -24.37500000
167 1 -32.50000000 -19.50000000 -22.75000000
168 2 -30.87500000 -17.87500000 -21.12500000
169 2 -32.50000000 -19.50000000 -19.50000000
170 1 -30.87500000 -17.87500000 -17.87500000
171 1 -32.50000000 -19.50000000 -16.25000000
172 2 -30.87500000 -17.87500000 -14.62500000
173 2 -32.50000000 -19.50000000 -13.00000000
174 1 -30.87500000 -17.87500000 -11.37500000
175 2 -32.50000000 -19.50000000 -9.75000000
176 2 -30.87500000 -17.87500000 -8.12500000
177 1 -32.50000000 -19.50000000 -6.50000000
178 1 -30.87500000 -17.87500000 -4.87500000
179 2 -32.50000000 -19.50000000 -3.25000000
180 2 -30.87500000 -17.87500000 -1.62500000
181 2 -32.50000000 -19.50000000 0.00000000
182 1 -30.87500000 -17.87500000 1.62500000
183 1 -32.50000000 -19.50000000 3.25000000
184 1 -30.87500000 -17.87500000 4.87500000
185 2 -32.50000000 -19.50000000 6.50000000
186 1 -30.87500000 -17.87500000 8.12500000
187 2 -32.50000000 -19.50000000 9.75000000
188 3 -30.87500000 -17.87500000 11.37500000
189 1 -32.50000000 -19.50000000 13.00000000
190 1 -30.87500000 -17.87500000 14.62500000
191 1 -32.50000000 -19.50000000 16.25000000
192 3 -30.87500000 -17.87500000 17.87500000
193 1 -32.50000000 -19.50000000 19.50000000
194 2 -30.87500000 -17.87500000 21.12500000
195 2 -32.50000000 -19.50000000 22.75000000
196 1 -30.87500000 -17.87500000 24.37500000
197 1 -32.50000000 -19.50000000 26.00000000
198 1 -30.87500000 -17.87500000 27.62500000
199 2 -32.50000000 -19.50000000 29.25000000
200 2 -30.87500000 -17.87500000 30.87500000
201 2 -32.50000000 -16.25000000 -32.50000000
202 3 -30.87500000 -14.62500000 -30.87500000
203 2 -32.50000000 -16.25000000 -29.25000000
204 2 -30.87500000 -14.62500000 -27.62500000
205 2 -32.50000000 -16.25000000 -26.00000000
206 2 -30.87500000 -14.62500000 -24.37500000
207 2 -32.50000000 -16.25000000 -22.75000000
208 1 -30.87500000 -14.62500000 -21.12500000
209 3 -32.50000000 -16.25000000 -19.50000000
210 2 -30.87500000 -14.62500000 -17.87500000
211 1 -32.50000000 -16.25000000 -16.25000000
212 3 -30.87500000 -14.62500000 -14.62500000
213 1 -32.50000000 -16.25000000 -13.00000000
214 1 -30.87500000 -14.62500000 -11.37500000
215 2 -32.50000000 -16.25000000 -9.75000000
216 3 -30.87500000 -14.62500000 -8.12500000
217 3 -32.50000000 -16.25000000 -6.50000000
218 2 -30.87500000 -14.62500000 -4.87500000
219 3 -32.50000000 -16.25000000 -3.25000000
220 3 -30.87500000 -14.62500000 -1.62500000
221 2 -32.50000000 -16.25000000 0.00000000
222 3 -30.87500000 -14.62500000 1.62500000
223 2 -32.50000000 -16.25000000 3.25000000
224 1 -30.87500000 -14.62500000 4.87500000
225 1 -32.50000000 -16.25000000 6.50000000
226 1 -30.87500000 -14.62500000 8.12500000
227 2 -32.50000000 -16.25000000 9.75000000
228 2 -30.87500000 -14.62500000 11.37500000
229 2 -32.50000000 -16.25000000 13.00000000
230 2 -30.87500000 -14.62500000 14.62500000
231 2 -32.50000000 -16.25000000 16.25000000
232 1 -30.87500000 -14.62500000 17.87500000
233 2 -32.50000000 -16.25000000 19.50000000
234 2 -30.87500000 -14.62500000 21.12500000
235 1 -32.50000000 -16.25000000 22.75000000
236 2 -30.87500000 -14.62500000 24.37500000
237 2 -32.50000000 -16.25000000 26.00000000
238 1 -30.87500000 -14.62500000 27.62500000
239 1 -32.50000000 -16.25000000 29.25000000
240 2 -30.87500000 -14.62500000 30.87500000
241 1 -32.50000000 -13.00000000 -32.50000000
242 2 -30.87500000 -11.37500000 -30.87500000
243 1 -32.50000000 -13.00000000 -29.25000000
244 1 -30.87500000 -11.37500000 -27.62500000
245 2 -32.50000000 -13.00000000 -26.00000000
246 3 -30.87500000 -11.37500000 -24.37500000
247 2 -32.50000000 -13.00000000 -22.75000000
248 2 -30.87500000 -11.37500000 -21.12500000
249 1 -32.50000000 -13.00000000 -19.50000000
250 2 -30.87500000 -11.37500000 -17.87500000
251 1 -32.50000000 -13.00000000 -16.25000000
252 3 -30.87500000 -11.37500000 -14.62500000
253 1 -32.50000000 -13.00000000 -13.00000000
254 2 -30.87500000 -11.37500000 -11.37500000
255 1 -32.50000000 -13.00000000 -9.75000000
256 2 -30.87500000 -11.37500000 -8.12500000
257 1 -32.50000000 -13.00000000 -6.50000000
258 1 -30.87500000 -11.37500000 -4.87500000
259 1 -32.50000000 -13.00000000 -3.25000000
260 2 -30.87500000 -11.37500000 -1.62500000
261 1 -32.50000000 -13.00000000 0.00000000
262 2 -30.87500000 -11.37500000 1.62500000
263 1 -32.50000000 -13.00000000 3.25000000
264 3 -30.87500000 -11.37500000 4.87500000
265 1 -32.50000000 -13.00000000 6.50000000
266 1 -30.87500000 -11.37500000 8.12500000
267 2 -32.50000000 -13.00000000 9.75000000
268 2 -30.87500000 -11.37500000 11.37500000
269 2 -32.50000000 -13.00000000 13.00000000
270 2 -30.87500000 -11.37500000 14.62500000
271 2 -32.50000000 -13.00000000 16.25000000
272 2 -30.87500000 -11.37500000 17.87500000
273 1 -32.50000000 -13.00000000 19.50000000
274 1 -30.87500000 -11.37500000 21.12500000
275 3 -32.50000000 -13.00000000 22.75000000
276 1 -30.87500000 -11.37500000 24.37500000
277 2 -32.50000000 -13.00000000 26.00000000
278 1 -30.87500000 -11.37500000 27.62500000
279 2 -32.50000000 -13.00000000 29.25000000
280 1 -30.87500000 -11.37500000 30.87500000
281 1 -32.50000000 -9.75000000 -32.50000000
282 1 -30.87500000 -8.12500000 -30.87500000
283 2 -32.50000000 -9.75000000 -29.25000000
284 2 -30.87500000 -8.12500000 -27.62500000
285 1 -32.50000000 -9.75000000 -26.00000000
286 3 -30.87500000 -8.12500000 -24.37500000
287 2 -32.50000000 -9.75000000 -22.75000000
288 2 -30.87500000 -8.12500000 -21.12500000
289 1 -32.50000000 -9.75000000 -19.50000000
290 1 -30.87500000 -8.12500000 -17.87500000
291 2 -32.50000000 -9.75000000 -16.25000000
292 2 -30.87500000 -8.12500000 -14.62500000
293 2 -32.50000000 -9.75000000 -13.00000000
294 2 -30.87500000 -8.12500000 -11.37500000
295 2 -32.50000000 -9.75000000 -9.75000000
296 3 -30.87500000 -8.12500000 -8.12500000
297 1 -32.50000000 -9.75000000 -6.50000000
298 1 -30.87500000 -8.12500000 -4.87500000
299 3 -32.50000000 -9.75000000 -3.25000000
300 1 -30.87500000 -8.12500000 -1.62500000
301 1 -32.50000000 -9.75000000 0.00000000
302 1 -30.87500000 -8.12500000 1.62500000
303 2 -32.50000000 -9.75000000 3.25000000
304 1 -30.87500000 -8.12500000 4.87500000
305 2 -32.50000000 -9.75000000 6.50000000
306 2 -30.87500000 -8.12500000 8.12500000
307 1 -32.50000000 -9.75000000 9.75000000
308 2 -30.87500000 -8.12500000 11.37500000
309 2 -32.50000000 -9.75000000 13.00000000
310 2 -30.87500000 -8.12500000 14.62500000
311 2 -32.50000000 -9.75000000 16.25000000
312 1 -30.87500000 -8.12500000 17.87500000
313 1 -32.50000000 -9.75000000 19.50000000
314 1 -30.87500000 -8.12500000 21.12500000
315 2 -32.50000000 -9.75000000 22.75000000
316 1 -30.87500000 -8.12500000 24.37500000
317 1 -32.50000000 -9.75000000 26.00000000
318 3 -30.87500000 -8.12500000 27.62500000
319 2 -32.50000000 -9.75000000 29.25000000
320 2 -30.87500000 -8.12500000 30.87500000
321 2 -32.50000000 -6.50000000 -32.50000000
322 2 -30.87500000 -4.87500000 -30.87500000
323 2 -32.50000000 -6.50000000 -29.25000000
324 1 -30.87500000 -4.87500000 -27.62500000
325 1 -32.50000000 -6.50000000 -26.00000000
326 3 -30.87500000 -4.87500000 -24.37500000
327 1 -32.50000000 -6.50000000 -22.75000000
328 1 -30.87500000 -4.87500000 -21.12500000
329 1 -32.50000000 -6.50000000 -19.50000000
330 1 -30.87500000 -4.87500000 -17.87500000
331 2 -32.50000000 -6.50000000 -16.25000000
332 2 -30.87500000 -4.87500000 -14.62500000
333 2 -32.50000000 -6.50000000 -13.00000000
334 2 -30.87500000 -4.87500000 -11.37500000
335 2 -32.50000000 -6.50000000 -9.75000000
336 1 -30.87500000 -4.87500000 -8.12500000
337 1 -32.50000000 -6.50000000 -6.50000000
338 1 -30.87500000 -4.87500000 -4.87500000
339 1 -32.50000000 -6.50000000 -3.25000000
340 2 -30.87500000 -4.87500000 -1.62500000
341 3 -32.50000000 -6.50000000 0.00000000
342 1 -30.87500000 -4.87500000 1.62500000
343 2 -32.50000000 -6.50000000 3.25000000
344 1 -30.87500000 -4.87500000 4.87500000
345 1 -32.50000000 -6.50000000 6.50000000
346 2 -30.87500000 -4.87500000 8.12500000
347 3 -32.50000000 -6.50000000 9.75000000
348 2 -30.87500000 -4.87500000 11.37500000
349 2 -32.50000000 -6.50000000 13.00000000
350 2 -30.87500000 -4.87500000 14.62500000
351 3 -32.50000000 -6.50000000 16.25000000
352 1 -30.87500000 -4.87500000 17.87500000
353 2 -32.50000000 -6.50000000 19.50000000
354 2 -30.87500000 -4.87500000 21.12500000
355 1 -32.50000000 -6.50000000 22.75000000
356 3 -30.87500000 -4.87500000 24.37500000
357 1 -32.50000000 -6.50000000 26.00000000
358 2 -30.87500000 -4.87500000 27.62500000
359 1 -32.50000000 -6.50000000 29.25000000
360 2 -30.87500000 -4.87500000 30.87500000
361 2 -32.50000000 -3.25000000 -32.50000000
362 1 -30.87500000 -1.62500000 -30.87500000
363 2 -32.50000000 -3.25000000 -29.25000000
364 1 -30.87500000 -1.62500000 -27.62500000
365 1 -32.50000000 -3.25000000 -26.00000000
366 1 -30.87500000 -1.62500000 -24.37500000
367 2 -32.50000000 -3.25000000 -22.75000000
368 2 -30.87500000 -1.62500000 -21.12500000
369 1 -32.50000000 -3.25000000 -19.50000000
370 1 -30.87500000 -1.62500000 -17.87500000
371 2 -32.50000000 -3.25000000 -16.25000000
372 1 -30.87500000 -1.62500000 -14.62500000
373 1 -32.50000000 -3.25000000 -13.00000000
374 2 -30.87500000 -1.62500000 -11.37500000
375 2 -32.50000000 -3.25000000 -9.75000000
376 2 -30.87500000 -1.62500000 -8.12500000
377 1 -32.50000000 -3.25000000 -6.50000000
378 1 -30.87500000 -1.62500000 -4.87500000
379 3 -32.50000000 -3.25000000 -3.25000000
380 2 -30.87500000 -1.62500000 -1.62500000
381 1 -32.50000000 -3.25000000 0.00000000
382 2 -30.87500000 -1.62500000 1.62500000
383 1 -32.50000000 -3.25000000 3.25000000
384 2 -30.87500000 -1.62500000 4.87500000
385 2 -32.50000000 -3.25000000 6.50000000
386 2 -30.87500000 -1.62500000 8.12500000
387 1 -32.50000000 -3.25000000 9.75000000
388 2 -30.87500000 -1.62500000 11.37500000
389 1 -32.50000000 -3.25000000 13.00000000
390 1 -30.87500000 -1.62500000 14.62500000
391 2 -32.50000000 -3.25000000 16.25000000
392 1 -30.87500000 -1.62500000 17.87500000
393 3 -32.50000000 -3.25000000 19.50000000
394 1 -30.87500000 -1.62500000 21.12500000
395 1 -32.50000000 -3.25000000 22.75000000
396 2 -30.87500000 -1.62500000 24.37500000
397 2 -32.50000000 -3.25000000 26.00000000
398 2 -30.87500000 -1.62500000 27.62500000
399 2 -32.50000000 -3.25000000 29.25000000
400 2 -30.87500000 -1.62500000 30.87500000
401 2 -32.50000000 -0.00000000 -32.50000000
402 1 -30.87500000 1.62500000 -30.87500000
403 2 -32.50000000 -0.00000000 -29.25000000
404 2 -30.87500000 1.62500000 -27.62500000
405 1 -32.50000000 -0.00000000 -26.00000000
406 2 -30.87500000 1.62500000 -24.37500000
407 2 -32.50000000 -0.00000000 -22.75000000
408 1 -30.87500000 1.62500000 -21.12500000
409 2 -32.50000000 -0.00000000 -19.50000000
410 1 -30.87500000 1.62500000 -17.87500000
411 2 -32.50000000 -0.00000000 -16.25000000
412 1 -30.87500000 1.62500000 -14.62500000
413 1 -32.50000000 -0.00000000 -13.00000000
414 2 -30.87500000 1.62500000 -11.37500000
415 2 -32.50000000 -0.00000000 -9.75000000
416 1 -30.87500000 1.62500000 -8.12500000
417 2 -32.50000000 -0.00000000 -6.50000000
418 1 -30.87500000 1.62500000 -4.87500000
419 2 -32.50000000 -0.00000000 -3.25000000
420 2 -30.87500000 1.62500000 -1.62500000
421 1 -32.50000000 0.00000000 0.00000000
422 2 -30.87500000 1.62500000 1.62500000
423 1 -32.50000000 0.00000000 3.25000000
424 2 -30.87500000 1.62500000 4.87500000
425 2 -32.50000000 0.00000000 6.50000000
426 1 -30.87500000 1.62500000 8.12500000
427 2 -32.50000000 0.00000000 9.75000000
428 1 -30.87500000 1.62500000 11.37500000
429 2 -32.50000000 0.00000000 13.00000000
430 1 -30.87500000 1.62500000 14.62500000
431 1 -32.50000000 0.00000000 16.25000000
432 2 -30.87500000 1.62500000 17.87500000
433 1 -32.50000000 0.00000000 19.50000000
434 1 -30.87500000 1.62500000 21.12500000
435 2 -32.50000000 0.00000000 22.75000000
436 2 -30.87500000 1.62500000 24.37500000
437 2 -32.50000000 0.00000000 26.00000000
438 3 -30.87500000 1.62500000 27.62500000
439 1 -32.50000000 0.00000000 29.25000000
440 1 -30.87500000 1.62500000 30.87500000
441 1 -32.50000000 3.25000000 -32.50000000
442 1 -30.87500000 4.87500000 -30.87500000
443 2 -32.50000000 3.25000000 -29.25000000
444 3 -30.87500000 4.87500000 -27.62500000
445 1 -32.50000000 3.25000000 -26.00000000
446 3 -30.87500000 4.87500000 -24.37500000
447 2 -32.50000000 3.25000000 -22.75000000
448 2 -30.87500000 4.87500000 -21.12500000
449 2 -32.50000000 3.25000000 -19.50000000
450 1 -30.87500000 4.87500000 -17.87500000
451 2 -32.50000000 3.25000000 -16.25000000
452 2 -30.87500000 4.87500000 -14.62500000
453 1 -32.50000000 3.25000000 -13.00000000
454 1 -30.87500000 4.87500000 -11.37500000
455 3 -32.50000000 3.25000000 -9.75000000
456 1 -30.87500000 4.87500000 -8.12500000
457 1 -32.50000000 3.25000000 -6.50000000
458 1 -30.87500000 4.87500000 -4.87500000
459 2 -32.50000000 3.25000000 -3.25000000
460 1 -30.87500000 4.87500000 -1.62500000
461 1 -32.50000000 3.25000000 0.00000000
462 2 -30.87500000 4.87500000 1.62500000
463 2 -32.50000000 3.25000000 3.25000000
464 2 -30.87500000 4.87500000 4.87500000
465 3 -32.50000000 3.25000000 6.50000000
466 1 -30.87500000 4.87500000 8.12500000
467 1 -32.50000000 3.25000000 9.75000000
468 2 -30.87500000 4.87500000 11.37500000
469 3 -32.50000000 3.25000000 13.00000000
470 1 -30.87500000 4.87500000 14.62500000
471 1 -32.50000000 3.25000000 16.25000000
472 2 -30.87500000 4.87500000 17.87500000
473 1 -32.50000000 3.25000000 19.50000000
474 2 -30.87500000 4.87500000 21.12500000
475 2 -32.50000000 3.25000000 22.75000000
476 2 -30.87500000 4.87500000 24.37500000
477 2 -32.50000000 3.25000000 26.00000000
478 1 -30.87500000 4.87500000 27.62500000
479 1 -32.50000000 3.25000000 29.25000000
480 1 -30.87500000 4.87500000 30.87500000
481 1 -32.50000000 6.50000000 -32.50000000
482 2 -30.87500000 8.12500000 -30.87500000
483 1 -32.50000000 6.50000000 -29.25000000
484 3 -30.87500000 8.12500000 -27.62500000
485 1 -32.50000000 6.50000000 -26.00000000
486 1 -30.87500000 8.12500000 -24.37500000
487 1 -32.50000000 6.50000000 -22.75000000
488 1 -30.87500000 8.12500000 -21.12500000
489 2 -32.50000000 6.50000000 -19.50000000
490 1 -30.87500000 8.12500000 -17.87500000
491 1 -32.50000000 6.50000000 -16.25000000
492 2 -30.87500000 8.12500000 -14.62500000
493 1 -32.50000000 6.50000000 -13.00000000
494 2 -30.87500000 8.12500000 -11.37500000
495 2 -32.50000000 6.50000000 -9.75000000
496 3 -30.87500000 8.12500000 -8.12500000
497 1 -32.50000000 6.50000000 -6.50000000
498 2 -30.87500000 8.12500000 -4.87500000
499 2 -32.50000000 6.50000000 -3.25000000
500 1 -30.87500000 8.12500000 -1.62500000
501 2 -32.50000000 6.50000000 0.00000000
502 2 -30.87500000 8.12500000 1.62500000
503 2 -32.50000000 6.50000000 3.25000000
504 2 -30.87500000 8.12500000 4.87500000
505 2 -32.50000000 6.50000000 6.50000000
506 2 -30.87500000 8.12500000 8.12500000
507 2 -32.50000000 6.50000000 9.75000000
508 3 -30.87500000 8.12500000 11.37500000
509 2 -32.50000000 6.50000000 13.00000000
510 2 -30.87500000 8.12500000 14.62500000
511 1 -32.50000000 6.50000000 16.25000000
512 2 -30.87500000 8.12500000 17.87500000
513 2 -32.50000000 6.50000000 19.50000000
514 2 -30.87500000 8.12500000 21.12500000
515 2 -32.50000000 6.50000000 22.75000000
516 2 -30.87500000 8.12500000 24.37500000
517 2 -32.50000000 6.50000000 26.00000000
518 1 -30.87500000 8.12500000 27.62500000
519 3 -32.50000000 6.50000000 29.25000000
520 2 -30.87500000 8.12500000 30.87500000
521 1 -32.50000000 9.75000000 -32.50000000
522 2 -30.87500000 11.37500000 -30.87500000
523 2 -32.50000000 9.75000000 -29.25000000
524 2 -30.87500000 11.37500000 -27.62500000
525 1 -32.50000000 9.75000000 -26.00000000
526 1 -30.87500000 11.37500000 -24.37500000
527 2 -32.50000000 9.75000000 -22.75000000
528 1 -30.87500000 11.37500000 -21.12500000
529 2 -32.50000000 9.75000000 -19.50000000
530 2 -30.87500000 11.37500000 -17.87500000
531 2 -32.50000000 9.75000000 -16.25000000
532 2 -30.87500000 11.37500000 -14.62500000
533 2 -32.50000000 9.75000000 -13.00000000
534 2 -30.87500000 11.37500000 -11.37500000
535 2 -32.50000000 9.75000000 -9.75000000
536 2 -30.87500000 11.37500000 -8.12500000
537 2 -32.50000000 9.75000000 -6.50000000
538 3 -30.87500000 11.37500000 -4.87500000
539 2 -32.50000000 9.75000000 -3.25000000
540 1 -30.87500000 11.37500000 -1.62500000
541 1 -32.50000000 9.75000000 0.00000000
542 3 -30.87500000 11.37500000 1.62500000
543 1 -32.50000000 9.75000000 3.25000000
544 1 -30.87500000 11.37500000 4.87500000
545 2 -32.50000000 9.75000000 6.50000000
546 3 -30.87500000 11.37500000 8.12500000
547 2 -32.50000000 9.75000000 9.75000000
548 1 -30.87500000 11.37500000 11.37500000
549 2 -32.50000000 9.75000000 13.00000000
550 2 -30.87500000 11.37500000 14.62500000
551 2 -32.50000000 9.75000000 16.25000000
552 2 -30.87500000 11.37500000 17.87500000
553 2 -32.50000000 9.75000000 19.50000000
554 2 -30.87500000 11.37500000 21.12500000
555 2 -32.50000000 9.75000000 22.75000000
556 3 -30.87500000 11.37500000 24.37500000
557 3 -32.50000000 9.75000000 26.00000000
558 1 -30.87500000 11.37500000 27.62500000
559 2 -32.50000000 9.75000000 29.25000000
560 1 -30.87500000 11.37500000 30.87500000
561 1 -32.50000000 13.00000000 -32.50000000
562 3 -30.87500000 14.62500000 -30.87500000
563 1 -32.50000000 13.00000000 -29.25000000
564 1 -30.87500000 14.62500000 -27.62500000
565 2 -32.50000000 13.00000000 -26.00000000
566 2 -30.87500000 14.62500000 -24.37500000
567 2 -32.50000000 13.00000000 -22.75000000
568 2 -30.87500000 14.62500000 -21.12500000
569 1 -32.50000000 13.00000000 -19.50000000
570 1 -30.87500000 14.62500000 -17.87500000
571 1 -32.50000000 13.00000000 -16.25000000
572 1 -30.87500000 14.62500000 -14.62500000
573 1 -32.50000000 13.00000000 -13.00000000
574 3 -30.87500000 14.62500000 -11.37500000
575 3 -32.50000000 13.00000000 -9.75000000
576 1 -30.87500000 14.62500000 -8.12500000
577 1 -32.50000000 13.00000000 -6.50000000
578 1 -30.87500000 14.62500000 -4.87500000
579 1 -32.50000000 13.00000000 -3.25000000
580 2 -30.87500000 14.62500000 -1.62500000
581 1 -32.50000000 13.00000000 0.00000000
582 1 -30.87500000 14.62500000 1.62500000
583 1 -32.50000000 13.00000000 3.25000000
584 1 -30.87500000 14.62500000 4.87500000
585 2 -32.50000000 13.00000000 6.50000000
586 1 -30.87500000 14.62500000 8.12500000
587 1 -32.50000000 13.00000000 9.75000000
588 1 -30.87500000 14.62500000 11.37500000
589 1 -32.50000000 13.00000000 13.00000000
590 1 -30.87500000 14.62500000 14.62500000
591 3 -32.50000000 13.00000000 16.25000000
592 2 -30.87500000 14.62500000 17.87500000
593 2 -32.50000000 13.00000000 19.50000000
594 2 -30.87500000 14.62500000 21.12500000
595 1 -32.50000000 13.00000000 22.75000000
596 1 -30.87500000 14.62500000 24.37500000
597 1 -32.50000000 13.00000000 26.00000000
598 1 -30.87500000 14.62500000 27.62500000
599 1 -32.50000000 13.00000000 29.25000000
600 1 -30.87500000 14.62500000 30.87500000
601 3 -32.50000000 16.25000000 -32.50000000
602 1 -30.87500000 17.87500000 -30.87500000
603 1 -32.50000000 16.25000000 -29.25000000
604 2 -30.87500000 17.87500000 -27.62500000
605 2 -32.50000000 16.25000000 -26.00000000
606 1 -30.87500000 17.87500000 -24.37500000
607 1 -32.50000000 16.25000000 -22.75000000
608 2 -30.87500000 17.87500000 -21.12500000
609 1 -32.50000000 16.25000000 -19.50000000
610 2 -30.87500000 17.87500000 -17.87500000
611 2 -32.50000000 16.25000000 -16.25000000
612 2 -30.87500000 17.87500000 -14.62500000
613 2 -32.50000000 16.25000000 -13.00000000
614 1 -30.87500000 17.87500000 -11.37500000
615 1 -32.50000000 16.25000000 -9.75000000
616 2 -30.87500000 17.87500000 -8.12500000
617 1 -32.50000000 16.25000000 -6.50000000
618 2 -30.87500000 17.87500000 -4.87500000
619 2 -32.50000000 16.25000000 -3.25000000
620 1 -30.87500000 17.87500000 -1.62500000
621 1 -32.50000000 16.25000000 0.00000000
622 1 -30.87500000 17.87500000 1.62500000
623 2 -32.50000000 16.25000000 3.25000000
624 2 -30.87500000 17.87500000 4.87500000
625 2 -32.50000000 16.25000000 6.50000000
626 1 -30.87500000 17.87500000 8.12500000
627 1 -32.50000000 16.25000000 9.75000000
628 1 -30.87500000 17.87500000 11.37500000
629 1 -32.50000000 16.25000000 13.00000000
630 1 -30.87500000 17.87500000 14.62500000
631 3 -32.50000000 16.25000000 16.25000000
632 2 -30.87500000 17.87500000 17.87500000
633 3 -32.50000000 16.25000000 19.50000000
634 1 -30.87500000 17.87500000 21.12500000
635 2 -32.50000000 16.25000000 22.75000000
636 3 -30.87500000 17.87500000 24.37500000
637 1 -32.50000000 16.25000000 26.00000000
638 1 -30.87500000 17.87500000 27.62500000
639 2 -32.50000000 16.25000000 29.25000000
640 2 -30.87500000 17.87500000 30.87500000
641 2 -32.50000000 19.50000000 -32.50000000
642 2 -30.87500000 21.12500000 -30.87500000
643 2 -32.50000000 19.50000000 -29.25000000
644 2 -30.87500000 21.12500000 -27.62500000
645 1 -32.50000000 19.50000000 -26.00000000
646 3 -30.87500000 21.12500000 -24.37500000
647 2 -32.50000000 19.50000000 -22.75000000
648 2 -30.87500000 21.12500000 -21.12500000
649 2 -32.50000000 19.50000000 -19.50000000
650 2 -30.87500000 21.12500000 -17.87500000
651 2 -32.50000000 19.50000000 -16.25000000
652 1 -30.87500000 21.12500000 -14.62500000
653 1 -32.50000000 19.50000000 -13.00000000
654 1 -30.87500000 21.12500000 -11.37500000
655 2 -32.50000000 19.50000000 -9.75000000
656 2 -30.87500000 21.12500000 -8.12500000
657 2 -32.50000000 19.50000000 -6.50000000
658 1 -30.87500000 21.12500000 -4.87500000
659 2 -32.50000000 19.50000000 -3.25000000
660 2 -30.87500000 21.12500000 -1.62500000
661 2 -32.50000000 19.50000000 0.00000000
662 2 -30.87500000 21.12500000 1.62500000
663 1 -32.50000000 19.50000000 3.25000000
664 1 -30.87500000 21.12500000 4.87500000
665 2 -32.50000000 19.50000000 6.50000000
666 1 -30.87500000 21.12500000 8.12500000
667 1 -32.50000000 19.50000000 9.75000000
668 2 -30.87500000 21.12500000 11.37500000
669 1 -32.50000000 19.50000000 13.00000000
670 1 -30.87500000 21.12500000 14.62500000
671 2 -32.50000000 19.50000000 16.25000000
672 2 -30.87500000 21.12500000 17.87500000
673 1 -32.50000000 19.50000000 19.50000000
674 2 -30.87500000 21.12500000 21.12500000
675 2 -32.50000000 19.50000000 22.75000000
676 1 -30.87500000 21.12500000 24.37500000
677 1 -32.50000000 19.50000000 26.00000000
678 1 -30.87500000 21.12500000 27.62500000
679 2 -32.50000000 19.50000000 29.25000000
680 3 -30.87500000 21.12500000 30.87500000
681 3 -32.50000000 22.75000000 -32.50000000
682 1 -30.87500000 24.37500000 -30.87500000
683 1 -32.50000000 22.75000000 -29.25000000
684 1 -30.87500000 24.37500000 -27.62500000
685 1 -32.50000000 22.75000000 -26.00000000
686 1 -30.87500000 24.37500000 -24.37500000
687 2 -32.50000000 22.75000000 -22.75000000
688 1 -30.87500000 24.37500000 -21.12500000
689 2 -32.50000000 22.75000000 -19.50000000