LAMMPS (12 Dec 2018)
# CuZr simulation

clear

boundary        p p p
units           metal
atom_style      atomic

read_data       Ag0.in.dat
  orthogonal box = (-42.4782 -42.4782 -42.4782) to (42.4782 42.4782 42.4782)
  2 by 4 by 4 MPI processor grid
  reading atoms ...
  32000 atoms
mass            1  91.22
mass            2  63.55
mass            3  107.87



pair_style      eam/alloy
pair_coeff      * * ZrCuAg.lammps.eam Zr Cu Ag

timestep       0.001

thermo_style    custom step temp ke pe etotal enthalpy press vol pxx pyy pzz pyz pxz pxy
thermo          100

fix             1 all npt temp 1700 1700 0.2 iso 0.0 0.0 0.2
run     500000
Neighbor list info ...
  update every 1 steps, delay 10 steps, check yes
  max neighbors/atom: 2000, page size: 100000
  master list distance cutoff = 8.5
  ghost atom cutoff = 8.5
  binsize = 4.25, bins = 20 20 20
  1 neighbor lists, perpetual/occasional/extra = 1 0 0
  (1) pair eam/alloy, perpetual
      attributes: half, newton on
      pair build: half/bin/atomonly/newton
      stencil: half/bin/3d/newton
      bin: standard
Per MPI rank memory allocation (min/avg/max) = 3.12 | 3.125 | 3.127 Mbytes
Step Temp KinEng PotEng TotEng Enthalpy Press Volume Pxx Pyy Pzz Pyz Pxz Pxy 
       0            0            0   -138872.51   -138872.51   -128068.75    28229.049    613181.97    27314.927    28095.423    29276.796    12.743871    591.22709   -419.97144 
     100    1824.2277    7545.3622   -146513.37   -138968.01   -137415.97    4086.9984       608427    3606.8083    4600.0251    4054.1618     110.1886      521.483   -109.25078 
     200    1882.9823    7788.3828   -146883.24   -139094.85   -139087.93    18.077137    613584.33    -339.4606   -188.42992    582.12193   -137.72184   -14.487167   -266.70781 
     300    1868.1618    7727.0821   -147069.48    -139342.4   -139472.03   -338.65401    613286.95   -232.64474   -207.56745   -575.74984   -40.357936    14.849938    249.72222 
     400    1843.5374    7625.2308   -147221.37   -139596.13   -139765.56   -442.93928    612852.61   -894.37328    47.008205   -481.45277    32.752613   -191.03831   -356.24477 
     500    1841.9407    7618.6268   -147460.83    -139842.2   -139779.89    163.31206    611286.36    251.70893    497.51416   -259.28692   -338.46662    181.96994   -928.17517 
     600    1819.0494    7523.9436   -147609.62   -140085.68   -139812.22    717.92999    610272.85    419.58118    959.73384    774.47495    445.99868   -60.628172   -245.49338 
     700    1795.2981    7425.7038   -147745.18   -140319.48   -140353.99   -90.620369    610128.65   -575.45305   -8.6574093    312.24936    489.53671    573.60332   -706.11842 
     800    1788.7135    7398.4686   -147936.66   -140538.19   -141050.17   -1344.5368    610089.71   -1439.6261   -1112.0319   -1481.9524    378.73609   -119.41558    76.688187 
     900    1768.6679    7315.5558   -148067.01   -140751.46    -140815.3   -168.05318    608694.79    515.19934   -556.51937    -462.8395   -188.39846     691.2184    431.55774 
    1000    1733.0171    7168.0972   -148115.62   -140947.52   -140845.56    268.63094    608145.12    219.57756    143.87626    442.43899    800.64788    214.95445   -756.79328 
    1100     1738.538    7190.9328   -148308.05   -141117.12   -141180.65   -167.59167    607332.17    194.40811   -106.94298   -590.24014    401.27019    265.40085    352.74952 
    1200    1714.5395    7091.6705   -148366.77    -141275.1   -141678.11   -1062.4508    607734.25   -1395.0848   -56.168044   -1736.0995    603.24924   -405.63979    413.66149 
    1300    1705.5569    7054.5165   -148462.14   -141407.62    -140886.3    1378.4195    605944.94    1498.5194    1122.1482     1514.591   -52.740831   -141.50309    873.62444 
    1400    1700.9927     7035.638   -148556.22   -141520.58   -141019.67    1325.8466    605312.28    1879.1286    391.07479    1707.3363    100.45165   -77.903878    319.19472 
    1500    1695.6132    7013.3874   -148630.44   -141617.05   -141736.14   -314.91885    605851.68    28.511358   -486.97656   -486.29133    214.34547     599.4181    456.67995 
    1600    1688.2764    6983.0412   -148674.61   -141691.57   -141796.23   -276.73073    605935.08   -523.39356   -134.62569   -172.17293   -229.16619     -112.767   -47.221937 
    1700    1681.3264    6954.2946   -148687.62   -141733.33   -141677.33    148.22347    605299.04    716.95635    140.90833   -413.19425    180.09136   -234.98675    -460.5914 
    1800    1686.1874    6974.4006   -148712.52   -141738.12   -141613.28    330.51732    605164.21   -194.45187    209.89641    976.10743    287.32162   -281.63933   -99.988144 
    1900    1696.8484    7018.4964   -148733.57   -141715.07   -141633.56    215.77784    605241.18    -537.8885    510.33781    674.88422    184.61227   -736.55904    279.57899 
    2000    1695.7487     7013.948   -148691.59   -141677.64   -142220.41   -1433.4629    606651.12   -1711.7473   -1185.4572   -1403.1843    155.23431   -305.20786    548.53342 
    2100    1696.3481     7016.427   -148652.52    -141636.1    -142305.9   -1767.5539    607133.64   -1782.5842   -1524.5983   -1995.4791    13.453392     251.5398   -102.20927 
    2200     1703.039    7044.1019   -148645.48   -141601.38   -141310.43    769.56172    605744.18   -427.28974    1127.4186    1608.5563     238.2263    643.68402   -445.63926 
    2300    1707.8662    7064.0682   -148637.12   -141573.05   -140989.62    1544.7406    605121.14    618.01842    2239.6255    1776.5779    442.86789    357.36537    23.698946 
    2400    1704.7307    7051.0994   -148602.02   -141550.92   -141495.15    147.41212    606202.57    323.74504    46.440347    72.050985    64.524023   -48.287949   -320.73406 
    2500    1716.1271    7098.2368   -148631.03   -141532.79   -141790.79   -681.33366     606681.8   -418.77851    -1133.716   -491.50643   -126.20852   -159.34702   -23.492596 
    2600    1713.8007    7088.6147   -148629.99   -141541.37   -141361.24    476.23995    606005.29    644.10749    747.23624    37.376108    128.33582    134.51028    96.343373 
    2700    1710.1979    7073.7125   -148649.87   -141576.15   -140908.27    1768.2199    605169.14    2241.5416    1692.0222    1371.0957    111.78526    48.871628   -540.91315 
    2800    1716.2466    7098.7313   -148727.66   -141628.93   -141496.74      349.675    605658.08    151.19363   -72.721088    970.55246    155.75438   -527.22568   -465.88357 
    2900    1677.7831    6939.6386   -148633.66   -141694.02   -142247.83   -1462.1694     606835.3   -1497.2651    -1577.654   -1311.5891    223.69237    38.653679   -48.632211 
    3000     1686.784    6976.8683   -148707.23   -141730.37   -141999.05   -709.96914     606345.9   -721.48493   -1045.0579   -363.36461    547.49579    611.61917    240.20873 
    3100    1697.4333    7020.9157   -148768.96   -141748.05   -141570.95    468.75429    605323.25    762.76987     284.2278     359.2652   -194.21598   -226.90099   -281.12612 
    3200    1688.4646    6983.8196   -148735.71   -141751.89   -141153.06    1586.6142    604700.14    1860.4099    1882.7329    1016.6998   -73.264892   -506.83977    544.26455 
    3300    1706.3017    7057.5972    -148783.5    -141725.9   -141571.04    409.96399    605230.29    1051.7106      278.472   -100.29065    165.45753    675.00813   -172.74467 
    3400    1697.1098    7019.5779   -148711.55   -141691.97   -142141.31   -1187.0325    606486.02   -1447.2502   -1313.4761   -800.37134   -47.893337   -270.23525    73.403653 
    3500    1692.4312    7000.2259   -148652.61   -141652.38   -141807.91   -410.87402    606477.21   -343.31721   -296.54017    -592.7647   -679.97322    160.29252    188.59453 
    3600    1710.1741    7073.6141   -148679.35   -141605.74   -141232.65    987.55359     605277.9    535.41986    1039.8961    1387.3448    144.86471   -179.26718     833.4892 
    3700    1710.9639    7076.8811   -148654.85   -141577.97   -141308.12    713.72912    605775.33    667.52493    711.67659    761.98583    -256.0339    537.12796   -131.48483 
    3800    1718.4342    7107.7795   -148676.97   -141569.19   -142223.92   -1728.0565    607038.59   -1382.8668   -1435.4802   -2365.8226    41.968096    392.11173     174.3488 
    3900    1707.7103    7063.4233   -148656.72    -141593.3   -141948.56   -938.51595    606480.98   -724.54561   -1136.0258   -954.97646   -344.36977    380.81859     31.81799 
    4000    1698.4793    7025.2421   -148663.87   -141638.63   -141148.57    1297.0869    605322.49    1244.8312    1165.0489    1481.3806    377.10644    400.76646   -52.775679 
    4100    1697.8697    7022.7209   -148708.64   -141685.92   -141720.98   -92.746754    605619.82    3.3971847   -307.57761    25.940163     351.1042    307.80337    561.47238 
    4200    1694.7536     7009.832   -148729.41   -141719.58   -142118.79   -1055.1736    606172.11   -873.71257   -961.11068   -1330.6974    51.150012   -199.06449    143.81838 
    4300    1695.3818    7012.4306   -148754.39   -141741.96   -141869.92   -338.45404    605759.22   -1044.7896   -188.44498    217.87251   -286.78961    81.419394   -204.99153 
    4400    1694.4968    7008.7699   -148758.08   -141749.31   -141030.77    1903.7675    604708.56    1667.7339    1771.8732    2271.6952   -846.38642   -608.69028    232.00271 
    4500    1688.6918    6984.7593   -148732.73   -141747.97    -141524.5    591.45488    605352.96   -119.87475    811.12175    1083.1176   -2.8714573    237.89794    291.54077 
    4600     1697.525    7021.2953   -148758.31   -141737.01    -142267.1   -1400.5596    606395.63    -2097.606   -1447.5333   -656.53934    495.47418   -190.25931    198.81634 
    4700    1701.1441    7036.2645   -148754.56   -141718.29   -141783.47   -172.48281    605431.29   -552.46146    394.14389   -359.13087   -257.19405    128.79413    137.97557 
    4800    1705.4654    7054.1381   -148751.71   -141697.57   -141536.54    426.25132    605264.67   -106.60803    857.55426    527.80772   -418.59904   -31.418944    84.594105 
    4900    1704.4523    7049.9478    -148731.7   -141681.75   -141416.02     703.1519    605496.06   -133.52624    1131.0987    1111.8832   -94.492971    254.07661   -320.46462 
    5000    1698.1177    7023.7466   -148698.11   -141674.36   -141495.45    473.17962    605793.11    382.28157    472.64074    564.61654   -309.65029   -363.85839    234.66317 
    5100    1704.5435    7050.3249   -148718.93   -141668.61   -141844.66   -465.31791    606174.75   -394.22989   -260.63285   -741.09098     -658.374   -734.61488    611.04668 
    5200    1699.2477    7028.4207   -148700.24   -141671.82   -142619.14   -2497.3573     607754.5   -2463.6462   -2444.4497   -2583.9759    -267.9168   -404.01072    32.267525 
    5300    1691.8941    6998.0045   -148684.77   -141686.77   -141883.91   -520.91164    606368.17   -463.32683   -480.72769   -618.68039   -555.44496   -408.10952   -197.95938 
    5400    1700.7087    7034.4633   -148739.41   -141704.95   -141318.54    1022.9443    605215.25    744.23854     1154.661    1169.9334   -264.58169    30.330934    376.62916 
    5500    1693.9163    7006.3688   -148730.96   -141724.59    -141593.4    347.03661    605684.01    386.36221    146.66957    508.07805    352.64084    448.90052     560.8194 
    5600    1696.1732    7015.7036   -148740.94   -141725.24   -141974.06   -657.53683    606293.44   -793.45128   -706.64083   -472.51837    881.24195   -191.32837   -647.35325 
    5700    1697.9781     7023.169   -148737.32   -141714.15   -141843.99   -343.36977    605833.47   -515.70348   -306.84731   -207.55852    134.71694     32.94968    355.88876 
    5800    1701.2884    7036.8611    -148738.2   -141701.34   -141525.68    464.81177    605467.99    73.638919    435.39374    885.40265   -163.16872   -127.35997    326.96747 
    5900    1697.7783    7022.3429   -148706.17   -141683.83   -140760.95     2446.149    604461.92    1946.1596    2877.1842    2515.1031   -137.30984   -780.12994    141.49713 
    6000    1712.3551    7082.6354   -148749.98   -141667.34   -142018.56   -928.30587    606162.27   -877.28397    -798.3319   -1109.3017    668.15053    -266.3121    409.22491 
    6100    1697.7742     7022.326   -148681.85   -141659.52   -142029.64   -977.37403    606715.91   -1296.5599   -1056.7793   -578.78287    44.318682   -351.37323    165.87944 
    6200    1700.8007    7034.8438   -148683.74    -141648.9   -141553.96    250.99196    606010.72    616.65615    216.99659   -80.676855   -162.48747   -247.04483    253.24809 
    6300    1697.6524    7021.8222   -148660.88   -141639.06   -141407.88    611.27449    605935.82    268.24185    1284.1488    281.43286   -377.33512    131.05295     442.6106 
    6400     1691.454    6996.1841   -148629.65   -141633.46   -142098.65   -1227.3752    607244.58    -1333.359    -1193.073   -1155.6936    609.42126   -277.74436    386.40158 
    6500    1699.0747    7027.7047   -148657.52   -141629.81   -142165.13   -1412.9559    607010.58   -1200.1891   -1288.4011   -1750.2775    579.03653   -91.859205   -38.376804 
    6600    1708.1055    7065.0579   -148707.61   -141642.55   -141722.25    -210.7317    605929.21     497.5681   -294.17245   -835.59074    101.40166   -116.09606    440.63152 
    6700    1702.3786    7041.3707   -148711.43   -141670.06   -140987.16    1809.7711    604561.52    1325.9696    2147.9541    1955.3896    132.23472    15.662368      19.6094 
    6800    1686.3858    6975.2211   -148673.65   -141698.43    -141538.1    424.07104    605749.89    289.26655    977.02986    5.9167018    123.48819    127.55692    536.79753 
    6900    1687.0943    6978.1518   -148687.76    -141709.6   -142077.54   -971.96743    606491.56   -1163.5079   -943.79554   -808.59881    132.73891    506.74142    -194.6271 
    7000    1701.5297    7037.8591   -148748.21   -141710.35   -142365.08   -1728.3146    606946.18   -1265.8476   -2039.3944   -1879.7018   -55.232783    234.91058   -207.36745 
    7100    1694.5307    7008.9099   -148722.69   -141713.78   -141838.81   -330.53863    606045.05   -292.25967   -242.41514   -456.94108   -434.70154   -112.52254    103.41784 
    7200    1700.8049    7034.8612   -148746.48   -141711.62   -141264.08    1185.0216    605085.95    935.31037    1508.1177    1111.6367    52.315128   -42.717794   -413.40745 
    7300     1703.888    7047.6135   -148762.43   -141714.82   -141676.45    101.49421    605625.99    -472.2012    195.11268    581.57114    -215.8386    94.024336    270.35251 
    7400    1694.6547    7009.4231   -148728.29   -141718.86   -141960.23   -637.94614    606191.84   -1089.8444   -560.67227   -263.32168    16.619218    354.86437   -553.76526 
    7500    1689.1241    6986.5474   -148698.32   -141711.77   -141994.98   -748.23277    606425.37   -422.85145   -1039.8799   -781.96699    367.68755    396.11429   -110.26226 
    7600    1699.7817    7030.6293   -148720.73    -141690.1   -141349.24    902.09068    605388.91    1312.2249    488.94172    905.10543    -42.64582    157.90278    -180.5422 
    7700    1697.4083    7020.8124   -148693.42    -141672.6   -141140.63    1408.5836    605088.55    2098.5504    529.96419    1597.2362   -25.158877    49.202427   -252.37781 
    7800     1699.944    7031.3005   -148683.55   -141652.25   -141899.54   -653.19412    606550.12   -108.23123   -1366.7474   -484.60374   -90.021327   -147.93412    158.06758 
    7900    1715.4149    7095.2912   -148727.24   -141631.95   -142274.42   -1695.8087    607004.12   -1621.9848   -1870.1794   -1595.2621   -109.06567   -3.9939375    25.855118 
    8000    1699.4542    7029.2747   -148660.92   -141631.65   -141670.74   -103.33888    606152.21    633.92039   -543.03604     -400.901   -47.731104    -181.7709    206.30287 
    8100    1706.9745    7060.3802   -148693.38      -141633   -141301.93     876.1827    605396.57    649.14796    750.49431    1228.9058    651.65028   -176.92639    413.52038 
    8200    1718.6765    7108.7817   -148754.79      -141646   -141252.69     1041.453    605082.63    446.39019    1845.5726    832.39618     656.0018   -416.63634    309.88384 
    8300    1705.7553    7055.3374   -148736.31   -141680.97   -141693.12   -32.149002    605830.95   -195.31574    451.23431   -352.36558   -223.38093    33.415757    420.96661 
    8400    1703.0585    7044.1827    -148771.2   -141727.02   -142429.77   -1855.8606    606691.35   -1394.0581   -1574.3836   -2599.1401   -301.38172   -321.41452     27.41924 
    8500    1692.8246    7001.8533   -148773.45   -141771.59   -141681.61    238.21482     605220.5     778.4862    32.753616   -96.595359   -489.34022   -241.64265   -42.860438 
    8600    1699.2017      7028.23   -148827.78   -141799.55   -141237.88    1488.4559     604582.4    1174.7896    1752.1662     1538.412    420.49323   -527.38533    391.20344 
    8700    1693.6701    7005.3504   -148820.33   -141814.98   -141558.12    680.19036    605046.16    503.76978    829.55053    707.25076    58.494054    316.90605    114.31102 
    8800    1696.1123    7015.4519    -148825.6   -141810.15   -142005.14   -515.77651    605699.78   -885.32218   -718.47323    56.465874   -53.733382   -327.94536    108.42269 
    8900    1696.1196     7015.482   -148802.36   -141786.88   -142174.74   -1025.4644    605989.44   -1941.7985   -837.16326   -297.43144    272.89162    77.024839    640.27234 
    9000    1684.4603    6967.2568   -148718.28   -141751.02   -141602.69    392.51327    605459.74   -238.98991    215.64224    1200.8875    363.89174   -477.35402    119.96191 
    9100    1706.2494    7057.3808    -148761.7   -141704.32   -141391.57    827.59665    605466.71    1053.1264    1152.1886    277.47501    93.587786    457.03918   -517.75522 
    9200    1713.7764    7088.5138   -148759.95   -141671.44   -141338.97    880.13248    605214.98    387.11507    1006.0484     1247.234    516.36945    470.66671   -207.97583 
    9300    1709.3154    7070.0623   -148726.55   -141656.48   -142146.53   -1293.7901    606851.64   -1264.6214   -1666.9279   -949.82091    212.73855     65.81098    412.62683 
    9400    1690.5183    6992.3139   -148647.22    -141654.9   -142125.06    -1241.212    606882.69    -1716.273   -1253.8587   -753.50436    -215.6201    58.740972    109.64807 
    9500     1702.336    7041.1942   -148697.81   -141656.62   -141410.02    652.50887    605506.67   -354.10803    1514.7454    796.88925    83.256486   -228.77331    244.09232 
    9600    1710.6781    7075.6989   -148737.13   -141661.43   -141038.29    1650.6893    604824.56    2041.0572    1514.8481    1396.1627    198.52558    245.41367     1123.475 
    9700    1713.1039    7085.7326   -148763.12   -141677.39   -141143.75    1413.6485     604812.1    1091.8031    1534.6029    1614.5394   -520.34088   -48.326812     618.5596 
    9800     1703.116    7044.4206   -148753.88   -141709.46   -142127.54   -1104.4486    606489.45   -1443.3887   -1826.8191   -43.137906    86.095616   -11.070599   -477.74804 
    9900    1696.8638    7018.5603      -148752   -141733.44   -141872.51   -367.66799    606026.43   -706.08155    -369.9863   -26.936111    254.86089   -261.66022    91.943588 
   10000    1705.0845    7052.5628    -148798.2   -141745.63   -141191.38    1468.5411    604689.37    1335.3593    1375.4054    1694.8586    530.86366    101.48197   -13.322084 
   10100    1692.9082    7002.1993   -148762.62   -141760.42   -141561.56    526.32696    605325.87    659.03849   -97.951231    1017.8936   -452.83671    426.78159   -230.72645 
   10200    1692.7564    7001.5711   -148764.97    -141763.4   -142115.63   -931.17373    606054.97   -1092.4876   -730.19411   -970.83951   -347.35695    37.167496    294.24493 
   10300     1688.618    6984.4539   -148735.54   -141751.08   -142191.94   -1164.6904    606455.93   -1169.1307   -965.93223   -1359.0083   -589.65771    278.01599    145.95969 
   10400    1701.3051    7036.9305   -148761.06   -141724.13   -141488.69    623.01782    605468.27    704.23642     482.5506    682.26642   -114.04032    396.20399   -322.38034 
   10500    1709.2376    7069.7405   -148771.96   -141702.22   -141268.05    1149.0133    605405.37    811.37285    1220.1289    1415.5381   -91.998053    159.35159   -413.97953 
   10600    1702.3431    7041.2237    -148733.2   -141691.97   -141741.25   -130.27539    605985.91   -299.07114   -504.25903    412.50401   -431.69988   -73.560203    -187.2899 
   10700    1710.4622     7074.806   -148762.27   -141687.47   -142257.13   -1504.1628    606784.69   -1556.5892    -1913.562    -1042.337   -530.00306    180.13487   -599.91595 
   10800    1699.9194    7031.1988   -148732.25   -141701.05   -141700.08    2.5660164    606002.58    428.89053   -874.55199    453.35951    256.79661   -352.02099   -216.52346 
   10900    1700.5006    7033.6029    -148750.1    -141716.5   -141072.21    1707.0202    604713.43    2150.5659    1872.2753    1098.2193    404.30952   -834.73949   -116.29339 
   11000    1693.6906    7005.4351   -148742.14   -141736.71   -141659.26    204.84616     605736.4     481.4384   -99.691257    232.79135    416.48483    -471.7189   -131.53143 
   11100     1688.923    6985.7156    -148741.2   -141755.48   -141976.81   -585.01323    606151.48   -922.39668    -690.1238    -142.5192    71.411148   -466.87492     225.6033 
   11200    1685.2591    6970.5608   -148729.81   -141759.24   -141801.35   -111.33063    605930.68    62.358134    -91.25161    -305.0984    61.329216   -196.65165   -192.78136 
   11300    1698.4038    7024.9298   -148763.05   -141738.12   -141587.69    398.05806    605493.23    175.99218    338.06241    680.11959     294.1743   -28.411503    402.62332 
   11400    1709.2666    7069.8604   -148764.37   -141694.51   -141372.11    853.40283    605261.86    556.73643    984.02444    1019.4476    231.52022    660.28403   -93.341995 
   11500    1697.2995    7020.3622   -148679.66    -141659.3   -141434.83    593.61932     605852.8     1005.212    702.40351    73.242484    232.57249   -184.78611    432.27716 
   11600    1700.2021     7032.368   -148678.28   -141645.92   -142343.76   -1840.3478    607529.35   -1399.0393   -1944.5995   -2177.4045   -264.14883    -77.67391    511.99231 
   11700    1704.1222    7048.5825   -148698.52   -141649.94   -142086.22   -1152.0371    606745.49   -1072.1504   -1157.4814   -1226.4793    281.81961   -129.56231   -374.10458 
   11800    1690.0247    6990.2724   -148655.93   -141665.66   -141588.44     204.1207    606081.71   -71.497357   -97.759726    781.61919   -95.663206   -931.37049   -46.100236 
   11900    1703.8643    7047.5156   -148725.88   -141678.37    -141556.7    321.86746    605614.89    1039.2232   -118.21985    44.599081    13.959707   -519.50998    243.86643 
   12000    1700.5142     7033.659   -148733.89   -141700.23   -142021.43   -849.01794    606132.06   -533.77569   -1437.9998   -575.27829   -153.99508    430.99694   -146.73853 
   12100    1701.6169    7038.2198      -148768   -141729.78   -141924.58   -514.98731     606067.1   -32.915555   -1576.7117    64.665339    126.81438     85.91459     367.7744 
   12200    1689.7479    6989.1274   -148754.94   -141765.82    -141105.4    1750.1867    604562.43     2342.273    1275.6696    1632.6176   -124.99359   -251.28993    111.82742 
   12300    1686.8367    6977.0863   -148785.83   -141808.75   -141536.76    720.37184    604922.02    665.88266    828.22581    667.00705   -41.118676   -7.0201285    219.95712 
   12400    1694.1934    7007.5148   -148850.83   -141843.32   -142231.36   -1026.0833    605907.83   -568.15483   -1555.6974   -954.39757    281.63136    -336.4859   -398.06412 
   12500    1683.6423    6963.8737   -148822.92   -141859.04   -142153.49   -778.49456    605977.88   -866.54319   -1007.3023   -461.63818   -353.45674    190.44421    42.458566 
   12600    1679.1734    6945.3894   -148790.24   -141844.85   -141769.16    200.31527    605371.86     12.14351    326.52793    262.27436   -340.35993    255.89629   -28.747825 
   12700    1692.9958    7002.5614   -148796.43   -141793.87   -141479.35    832.69218    605163.94    1663.1832    355.62074     479.2726   -34.123684    349.93207   -101.89484 
   12800    1701.3636    7037.1722   -148803.27    -141766.1   -141500.81    702.43334    605096.13    1324.4005    514.82315    268.07636   -137.51359    -233.4367   -116.04254 
   12900     1711.287    7078.2172   -148835.51   -141757.29   -142259.41    -1326.822    606319.85   -1173.3991   -769.67499    -2037.392    596.53986    17.415729    18.816267 
   13000    1701.3111    7036.9552    -148791.1   -141754.14    -141998.3   -645.40911    606089.46   -207.38261   -411.95132   -1316.8934    333.52103   -455.22956   -195.20779 
   13100    1685.5774    6971.8773   -148723.04   -141751.16   -141446.43    806.66014    605250.86    1167.8393    993.56469    258.57644   -109.35589    -450.4354   -357.74196 
   13200     1702.669    7042.5716    -148776.8   -141734.23   -141629.58    276.83606    605671.24    142.22554    248.73842    439.54422   -636.52077   -219.78624   -207.13143 
   13300    1689.4987    6988.0967   -148706.48   -141718.39   -142519.19   -2112.7163    607292.81   -2152.3198   -1842.5449   -2343.2841   -404.87184   -341.28172    45.235105 
   13400    1698.8251    7026.6726   -148723.42   -141696.75   -142065.64   -974.57511    606453.86   -771.73879   -959.14072   -1192.8458   -243.64843   -69.885387    392.19259 
   13500    1702.1308    7040.3454   -148720.09   -141679.75   -141604.88     197.9508    605974.56    147.32344    407.37033    39.158622   -272.80034    -589.5137    120.00994 
   13600     1701.275    7036.8056   -148713.81      -141677   -141426.51    662.71698    605583.72    498.70979    1057.9518    431.48929   -134.35105    16.191081   -125.88372 
   13700    1706.4253    7058.1083   -148742.75   -141684.64   -141511.61    457.71072    605681.77    238.09745    958.37502     176.6597    36.448711    89.152841    94.936291 
   13800    1701.0811    7036.0037   -148749.11    -141713.1   -142359.27   -1705.9121    606876.94   -1607.3313   -1870.6994   -1639.7055    -234.6124   -66.801357   -328.83735 
   13900    1690.2291     6991.118   -148748.58   -141757.46   -141997.83   -635.01471    606465.51    -585.3772   -1040.8935    -278.7734    177.83302   -114.98541    445.14113 
   14000    1692.1273    6998.9693   -148783.46   -141784.49    -141521.8    694.96148    605615.27    990.00874    859.81621     235.0595   -600.29118    92.177537   -152.66798 
   14100    1700.3771    7033.0919   -148825.06   -141791.97   -141660.38    348.25307     605371.1    565.73091   -80.325293    559.35361   -176.42901   -19.323109   -621.21148 
   14200    1696.9107     7018.754   -148811.91   -141793.15   -142185.98   -1037.7857    606460.85   -872.26172   -1151.3856   -1089.7099   -328.80329    -538.4417   -504.29219 
   14300     1691.706    6997.2264   -148787.04   -141789.81    -142177.5   -1024.3463    606378.91   -1376.6748   -463.74401     -1232.62   -652.56874    414.93624    18.846569 
   14400    1691.0952    6994.7001   -148775.16   -141780.46   -141648.06    350.36296    605431.19   -260.17287    447.50441    863.75734   -75.416546    54.872952    380.03084 
   14500    1696.7779    7018.2048   -148768.11    -141749.9   -141436.35    830.33154     605026.4    429.26985    813.07114    1248.6536   -299.57807     -26.1587    91.768823 
   14600    1709.0054    7068.7804   -148758.82   -141690.03    -141805.4   -305.02137    605980.42    -818.2124   -199.48658    102.63487   -103.28686   -775.73958    274.29492 
   14700    1700.7412    7034.5978   -148699.37   -141664.78    -142517.1   -2247.8395       607507   -2777.8652   -2024.1276   -1941.5257    315.93788   -97.723174    415.06267 
   14800    1700.2088    7032.3957   -148691.42   -141659.03   -141799.72   -371.82064    606230.46   -963.34737    39.134884   -191.24945    976.73937   -133.63256    4.4056409 
   14900    1711.9445    7080.9368   -148741.86   -141660.92   -141242.71    1107.1297    605217.22    1119.1632    777.31451    1424.9113     645.0756   -523.30334    140.81054 
   15000    1710.1011    7073.3122   -148748.09   -141674.78   -141327.46    919.39027    605244.31    1696.0096    95.087185    967.07401    209.54746   -388.72327   -21.116703 
   15100    1711.2472    7078.0526    -148780.3   -141702.25   -141960.84    -683.1196    606486.99    -500.3061   -506.93802   -1042.1147    194.00039   -761.86756   -376.80724 
   15200    1702.9124    7043.5783   -148786.33   -141742.75   -142175.39   -1142.8658    606508.94    -1476.731   -1454.0475   -497.81871   -100.58367    33.914246   -477.88047 
   15300    1702.1287    7040.3368   -148810.71   -141770.38   -141607.82    430.39836    605118.11   -80.920468    1184.4491    187.66647     326.4871   -3.8588412   -481.03138 
   15400    1697.7543    7022.2434   -148804.44    -141782.2   -140984.99    2113.7294    604269.69    1984.3818    3556.3377    800.46857    -73.09445   -249.43652   -186.52536 
   15500    1700.8345    7034.9839   -148824.76   -141789.77   -141777.72    31.893542    605617.71   -170.58366    602.06298    -335.7987   -188.79017    540.87583   -28.330936 
   15600    1693.0362    7002.7283   -148798.37   -141795.64   -142208.72   -1091.7286    606223.33   -1164.7323   -1250.7499   -859.70355    459.67074   -34.348151   -220.77628 
   15700    1688.7869    6985.1524   -148782.06    -141796.9   -142026.46   -606.79992     606111.7   -43.860598   -914.68444   -861.85472    769.07279    605.17203   -16.376458 
   15800    1687.1944    6978.5658    -148761.8   -141783.23   -141867.63   -223.10126    606083.05    304.32463   -438.25755   -535.37087    425.90903    492.06654     279.6328 
   15900    1698.8436     7026.749   -148766.77   -141740.02   -141347.55     1039.018    605187.38    876.78553    806.52388    1433.7446   -114.40209     65.12275    61.351292 
   16000    1703.1673    7044.6327   -148744.93    -141700.3   -141731.34   -82.063541    606062.82   -478.22619    284.19509   -52.159527    366.19843    -742.3921    55.366345 
   16100    1704.2056    7048.9273   -148733.53    -141684.6   -141902.72   -576.63398    606028.14   -122.81406    -799.0459   -808.04198    460.74649   -247.02417   -177.75657 
   16200    1704.5856     7050.499   -148740.03   -141689.53   -141687.03    6.6094002    605922.64   -693.23913    104.65613     608.4112    136.03777   -63.012695    664.91223 
   16300    1704.8263    7051.4947   -148755.88   -141704.39   -141550.16    408.00993    605628.37   -185.13857    822.53978    586.62859    -192.9017   -289.15736     77.71914 
   16400    1695.3866    7012.4503    -148727.6   -141715.15   -141352.07    960.86601    605406.17    1032.7974    954.09718    895.70342    25.717188    264.81015   -436.09994 
   16500    1705.4679    7054.1483   -148771.31   -141717.16   -141783.27   -174.84179    605828.56   -536.03432    518.20683   -506.69789   -171.97354   -446.93014   -116.36795 
   16600    1691.8453    6997.8028   -148726.64   -141728.84   -142094.19   -965.05488    606556.28   -620.79893   -1259.0128   -1015.3529    182.41261    246.88587    427.19648 
   16700    1698.2341     7024.228   -148784.03    -141759.8   -141906.69   -388.35073    606011.19    -515.4253   -522.55305   -127.07383    302.89917    -118.7446    1200.6271 
   16800    1689.7364      6989.08   -148798.25   -141809.17   -141197.15    1621.7723    604626.39    1367.3828    1594.6062    1903.3278    91.091355   -4.1445759    377.53264 
   16900     1696.509    7017.0925   -148852.54   -141835.45   -141432.54    1067.2808    604830.66    1188.8429    1221.1315    791.86799    237.25533    57.932374     257.8905 
   17000    1697.0611    7019.3765   -148857.01   -141837.63   -142195.86   -947.48148    605756.42   -1491.5005   -704.58686   -646.35707    436.31423   -282.93048   -364.61474 
   17100    1692.9999    7002.5783   -148825.42   -141822.85   -142060.08   -627.53513    605680.75   -539.68918   -1173.3462   -169.57001    577.09591   -555.45589    109.78807 
   17200    1697.3532    7020.5844   -148813.54   -141792.96   -141267.36    1393.3949    604347.57    1814.0072    1592.1208    774.05672    253.94061   -798.89772    563.53941 
   17300    1697.3658    7020.6365   -148788.72   -141768.08   -141473.08    781.19171    605024.07    919.58833    665.21087    758.77593    483.08033   -517.64335    266.33263 
   17400    1699.5639    7029.7282   -148780.08   -141750.36   -141998.33   -655.67227    605944.65   -579.70732   -1213.9517   -173.35777    365.73114    97.695959    433.11479 
   17500    1687.0599    6978.0096    -148711.5    -141733.5   -142247.28   -1356.1996    606971.41   -1090.2455   -1458.9627   -1519.3905    229.34515     257.7339    387.10371 
   17600    1703.3437    7045.3625   -148759.52   -141714.16   -141886.07   -454.42451    606101.64   -374.71407   -566.43392   -422.12553    13.197784   -245.94234   -73.138889 
   17700    1697.1266    7019.6472   -148725.47   -141705.82   -141070.22    1683.7088    604820.33    1517.5312    1992.9575    1540.6377    334.20333   -127.91477    1101.6701 
   17800    1695.3515    7012.3049    -148708.3   -141695.99    -141232.4    1227.1833    605253.99    1023.2768    1111.0849    1547.1884    212.03903    217.24561    473.96915 
   17900    1700.9744    7035.5625   -148717.48   -141681.92   -142012.32   -872.79455    606511.88    -630.7699   -1059.1904    -928.4233   -10.580793   -46.431545    479.52393 
   18000    1703.6481    7046.6216   -148717.37   -141670.75   -141931.81    -689.7419    606424.69    -691.6982   -1180.5003    -197.0272    177.98753      2.87268    370.93619 
   18100    1704.5685    7050.4282    -148706.8   -141656.37   -141375.49    743.03524    605644.92    1086.5152    667.98949    474.60106     142.4136   -514.56513   -530.34083 
   18200     1707.278    7061.6354   -148706.11   -141644.48    -141668.2    -62.69303    606237.03   -344.25254   -109.48943    265.66288    100.32638    75.730603    -147.5528 
   18300    1703.7969     7047.237   -148691.33   -141644.09   -142170.74   -1390.3607    606880.16   -2085.9688   -504.86814   -1580.2453    594.84161   -332.03526   -444.64711 
   18400     1696.272    7016.1126   -148670.81    -141654.7   -141667.11   -32.803676    606235.73    55.289472    239.14294   -392.84344    371.72353    284.48873   -376.80116 
   18500    1698.3183    7024.5764   -148701.12   -141676.55   -141302.63    989.09548    605692.02    1067.7546    1371.2408    528.29106    315.82981   -36.407101   -183.87317 
   18600    1688.5476    6984.1626    -148682.8   -141698.63   -141715.68   -45.059242     606001.7    345.30181    176.84323   -657.32277   -470.38011   -202.38118   -313.32475 
   18700    1689.3112    6987.3213   -148696.87   -141709.55   -142136.32   -1127.2976    606557.93   -1214.1569   -810.70989    -1357.026   -394.59569     -182.062    93.215484 
   18800    1694.7868    7009.9692   -148718.73   -141708.76   -141999.71   -768.76509    606348.39   -734.85922    -514.3273   -1057.1087   -475.88072   -679.67555   -194.90048 
   18900    1697.3992    7020.7746   -148708.37    -141687.6   -141168.26    1374.8464    605211.89    1163.2999    1576.9715    1384.2677    718.56441   -152.00781    283.51705 
   19000    1711.5965    7079.4974   -148738.53   -141659.03   -141543.52    305.47807    605804.45    7.8140383    628.04248    280.57771   -161.00267    504.73964   -450.97138 
   19100    1700.5788    7033.9262   -148672.75   -141638.82      -141772   -351.84549    606469.83   -207.69315   -8.7893453   -839.05398   -83.828132    111.84136    3.8501844 
   19200    1706.0238    7056.4479   -148673.37   -141616.92   -142110.98   -1303.7212    607162.29   -1417.8744   -833.53369   -1659.7556   -91.771307   -368.28158    156.64437 
   19300    1710.5164    7075.0301    -148670.1   -141595.06   -141630.15   -92.691723    606420.62    140.57869     351.2711   -769.92495   -526.78745   -696.42214    25.118748 
   19400    1707.8357    7063.9421   -148659.37   -141595.43   -140944.03    1724.3573    605242.63    2952.7428    936.21134    1284.1177    315.29986   -148.71928   -65.866286 
   19500    1702.7293    7042.8211   -148673.15   -141630.33   -141531.93    260.14677    606050.64    199.54097    951.10875   -370.20941   -294.88781   -563.64087    280.12927 
   19600    1706.1442    7056.9458   -148737.01   -141680.06   -142109.06    -1133.031    606633.65   -1014.7793     -1212.51   -1171.8036    192.59575   -27.381618   -63.571106 
   19700    1706.6838    7059.1775   -148774.38    -141715.2    -141676.6     102.1556    605495.14    -17.11255    151.56865    172.01071    55.651777    438.08348    17.572564 
   19800    1700.6469    7034.2078   -148769.38   -141735.17      -141364    983.18456    604850.72    1346.2092    1061.8804    541.46404    3.1637938    409.26509    490.47113 
   19900    1701.7305    7038.6898   -148786.94   -141748.25   -141457.79    769.06587    605117.34    1009.8168    631.90058    665.48021   -16.845858     57.95152     554.1267 
   20000    1705.4852    7054.2201   -148810.11   -141755.89   -142127.79   -983.24297    606004.01   -506.59331   -1570.3718   -872.76384   -1144.8035    151.16042    406.38772 
   20100     1702.289    7041.0001   -148795.83   -141754.83   -142281.63   -1391.4174    606592.41   -1314.1853   -1535.7145   -1324.3524   -828.69276   -286.25617   -298.16278 
   20200    1691.7034    6997.2158   -148745.18   -141747.97   -141494.29    671.06103    605659.25    874.74927    543.06393    595.36987    25.700369    304.40883    348.71799 
   20300    1704.6924    7050.9408    -148782.2   -141731.26   -141267.73    1227.4853    605033.36    1069.6831    1447.1758     1165.597    151.80006    -239.0757   -478.89778 
   20400     1708.779     7067.844   -148773.21   -141705.37   -141495.23    555.94398    605594.44    31.422028    723.34862    913.06128   -372.37489    242.55823   -119.17934 
   20500     1703.725    7046.9394   -148722.01   -141675.07   -142149.64   -1252.6865    606966.06   -978.31184    -1314.266   -1465.4816    146.13083   -305.86069   -497.45591 
   20600    1702.4898    7041.8305   -148695.46   -141653.63   -142061.44   -1077.1746    606575.73   -1659.2058   -1031.8321   -540.48579    335.62578    237.76555    311.26893 
   20700     1700.274    7032.6653   -148674.99   -141642.32   -141309.76    880.00039     605472.9    236.76261    1078.7486    1324.4899    -543.9418    814.27056     350.8824 
   20800    1708.1552    7065.2637   -148699.51   -141634.24   -141339.41    780.11871    605510.45    1081.8145    481.48341    777.05819   -111.34662     442.0767    149.44696 
   20900    1699.7267    7030.4019   -148674.45   -141644.05   -142030.46   -1020.2448    606802.94   -1344.1239   -728.69421   -987.91641   -388.01613    438.47831    230.88789 
   21000    1697.5797    7021.5212   -148697.69   -141676.17   -142149.13   -1248.6709    606864.12   -1227.8875   -1019.6481   -1498.4772   -30.351455   -259.36287   -292.02202 
   21100    1695.1176    7011.3376   -148730.25   -141718.92   -141345.37     988.6279    605373.18    1065.3815     1125.007    775.49515    161.31113    212.68244    46.687768 
   21200    1695.5918     7013.299   -148761.55   -141748.25   -141368.74      1005.26    604854.88    523.74238    1293.9551    1198.0825    71.809539    454.58101    45.953932 
   21300    1692.7547     7001.564   -148758.03   -141756.46   -141992.34   -623.76757    605870.24   -732.23295   -904.10792   -234.96185   -368.85861     7.601649    457.92032 
   21400    1697.0363    7019.2737   -148768.93   -141749.66   -142124.56   -990.49901    606418.61    -941.8269   -1294.5346   -735.13551   -314.20068   -12.224786   -433.30048 
   21500    1700.0913    7031.9097   -148772.82   -141740.91   -141488.06    669.33691     605241.7    1030.0254    587.12791    390.85746    668.33665     61.97012    86.595926 
   21600    1710.5565    7075.1959    -148797.4   -141722.21   -141077.36    1709.0638    604516.37    2166.3498    1528.8288    1432.0129     125.9815    -467.9374    376.55836 
   21700    1709.4883    7070.7777   -148761.75   -141690.97   -141564.57    334.41998    605569.86    277.90929    182.79448    542.55617     331.3925   -889.69695    538.79309 
   21800    1717.1688    7102.5456   -148762.44    -141659.9   -141914.51   -673.00375    606139.37   -787.66768   -214.72121   -1016.6224    115.79161   -513.83203   -42.945282 
   21900     1700.195    7032.3386   -148677.23   -141644.89    -141760.5   -305.48736    606358.41   -451.13852   -225.74306   -239.58049   -339.03176   -328.09418    217.21685 
   22000    1708.2986    7065.8567   -148701.06    -141635.2   -141410.61    593.93135    605843.74    293.92335    231.64428    1256.2264   -364.07055   -580.05729    147.24457 
   22100    1709.7209    7071.7399   -148714.25   -141642.51   -141247.26    1045.9617    605426.32    889.06515    472.85789     1775.962    106.98055   -22.384487   -394.93779 
   22200     1720.088    7114.6201   -148794.01   -141679.39   -141994.53    -832.9612    606175.34   -938.25678   -1637.0114    76.384606    185.95553   -415.46819   -21.865454 
   22300    1689.1173    6986.5191   -148717.54   -141731.02   -142313.08   -1536.4812    606943.82   -2045.0513   -1655.0984   -909.29387   -140.97549   -414.81645   -270.51812 
   22400    1694.0742    7007.0217   -148756.45   -141749.43   -141404.03    913.97711    605465.21    813.46048    248.61305    1679.8578   -360.77562   -441.39403   -646.59736 
   22500    1698.1591    7023.9178   -148783.89   -141759.97   -141633.97    333.37075    605560.12    539.54911   -524.50175     985.0649   -563.37136   -359.46682   -79.348159 
   22600    1702.3014    7041.0511   -148807.39   -141766.34   -141725.43    108.28588    605411.89    26.829477     147.1875    150.84066   -538.08613   -63.391347   -340.81262 
   22700    1696.4278    7016.7567   -148788.54   -141771.78   -141888.34   -308.37533    605579.99   -316.65234   -10.849296   -597.62436   -617.84899     552.2551   -294.92968 
   22800    1703.4806    7045.9284   -148813.76   -141767.83   -141633.05     356.5726    605604.27   -153.48517    363.26126    859.94171    142.54639   -117.48636    208.69154 
   22900    1711.1471    7077.6386   -148827.99   -141750.35      -141144    1606.7348    604629.06    1683.8102    1436.4508    1699.9433    147.38482   -84.006737    119.04571 
   23000    1707.1626    7061.1579   -148792.89   -141731.73   -141742.33   -28.038906    605693.57    430.44222    -337.0319   -177.52703   -132.50903    -1.660606    248.56484 
   23100    1702.3867    7041.4041    -148753.6    -141712.2   -142186.66   -1253.0603    606657.64    -1271.131   -1507.8808   -980.16921    108.54139   -132.42502     624.4752 
   23200    1705.3745    7053.7622   -148748.91   -141695.14    -141775.6    -212.6967    606067.01   -624.15933    692.71908   -706.64985   -249.00921    377.90373    8.6609866 
   23300    1710.0693    7073.1806   -148765.72   -141692.54   -141445.05    655.09206    605305.25    822.19103    575.06826     568.0169   -688.28691   -333.81909     -741.109 
   23400    1699.1809    7028.1441   -148739.35    -141711.2   -141618.84    244.34502    605607.99    52.693966    413.63285    266.70825   -329.80208   -86.560422   -20.028775 
   23500    1692.9815    7002.5022   -148745.03   -141742.53   -142203.12   -1216.3828       606674   -1867.0625   -1105.0565   -677.02953   -109.33961   -730.03422    698.45273 
   23600    1687.4325    6979.5507   -148752.47   -141772.92   -141831.99   -156.20731    605897.37   -411.98636    79.256165   -135.89174   -34.872781   -382.35703   -436.88455 
   23700    1698.9654    7027.2527   -148813.64   -141786.39   -141471.45    834.11091    604930.57    1202.3008    847.81982    452.21207   -274.78879   -239.69973    177.00373 
   23800    1693.6054    7005.0828   -148799.16   -141794.07   -142169.74   -992.73105    606293.78   -1227.0302   -877.10118   -874.06174     330.8186    282.24195   -126.19274 
   23900    1687.0292    6977.8824   -148777.41   -141799.53   -142321.01    -1377.503    606527.94   -953.55156   -1655.7627   -1523.1948    46.063205    848.86057   -334.01598 
   24000    1693.3305    7003.9458   -148801.32   -141797.37   -141567.96    607.06104     605471.9    1119.6905    400.61922    300.87336    185.96085    192.28139   -84.946711 
   24100    1706.4266    7058.1139   -148829.03   -141770.91   -141565.44    543.81752    605360.16    999.62181    521.12084     110.7099    622.12628   -38.581602    88.836491 
   24200    1710.9246    7076.7184   -148815.74   -141739.02   -142009.12   -713.96825     606120.8    -44.27223   -1327.0134   -770.61913    289.20147     624.4217    347.48158 
   24300    1707.6069    7062.9958   -148781.16   -141718.16   -141749.57   -83.087293    605609.06    360.86543   -435.62311   -174.50419   -344.07053   -117.29926    281.88838 
   24400    1699.2194    7028.3032   -148733.57   -141705.26   -141233.98    1247.4344    605310.16    1556.6347    1166.9853    1018.6832   -21.159799   -104.00707    17.981799 
   24500    1704.2616    7049.1591   -148746.25   -141697.09   -141720.14   -60.919588    606093.81      391.143   -478.77017   -95.131584   -58.110582    397.88508    72.665494 
   24600    1710.8865    7076.5606   -148776.43   -141699.87   -142468.58   -2028.8314     607059.9   -1532.2408   -2199.9216   -2354.3317    530.53653    608.37401    345.22653 
   24700    1700.2624    7032.6176   -148761.03   -141728.41   -141856.88   -339.72909    605852.54   -13.942788   -568.88855   -436.35594    727.52183    340.42145    214.40974 
   24800    1691.8598    6997.8627   -148765.47   -141767.61   -141319.64    1186.6595     604827.9     1025.224    1118.9892    1415.7653     473.1325    268.91004    405.97962 
   24900    1695.7872    7014.1071   -148807.63   -141793.52   -141784.37    24.211503    605520.68   -256.06176    -286.2583    614.95457    339.28816    229.38755    728.80204 
   25000      1690.47    6992.1144   -148796.06   -141803.94   -141838.56   -91.553616    605766.96   -291.77878   -343.21422    360.33215   -160.91684  0.092234851    47.069819 
   25100    1693.1516    7003.2058   -148798.02   -141794.82    -142045.1   -661.69783    606018.65   -833.67857   -624.78543    -526.6295    358.12392     48.00093   -484.85745 
   25200    1686.2931    6974.8376   -148741.24    -141766.4   -142133.66   -970.56769     606254.1   -1146.4439    -740.3557   -1024.9035    398.77458   -496.40023   -663.54992 
   25300    1712.8158    7084.5409   -148812.65   -141728.11   -141522.61    543.83763    605395.54     550.8737    51.055008    1029.5842    139.19515   -396.18302    215.34273 
   25400    1703.8362    7047.3992   -148764.52   -141717.12   -141372.69    911.29495    605551.53    1034.8039     804.8514    894.22954    237.96143   -128.46037    212.27272 
   25500    1700.9396    7035.4184   -148751.22    -141715.8   -141717.55   -4.6148362    605962.47   -104.34739    236.59538    -146.0925   -9.7033314   -1013.5954    488.73522 
   25600    1701.1495    7036.2865   -148752.88   -141716.59   -142364.36   -1709.8503    606982.25   -1440.3394   -1704.9067   -1984.3048    184.75649   -251.35755    73.832923 
   25700    1697.3802     7020.696   -148739.77   -141719.07   -142288.42   -1503.6648    606642.19   -1604.2144   -1357.4232   -1549.3568    374.18655   -470.02113    71.310867 
   25800    1696.3175    7016.3006   -148738.58   -141722.28   -141414.31     814.8742     605519.6     325.6925    872.23778    1246.6923   -742.71365    41.878021   -415.61677 
   25900    1704.9526    7052.0171   -148784.09   -141732.07    -141401.2    875.98746    605162.58    268.63339    1325.0459     1034.283     -129.015    -258.7844     110.9733 
   26000    1702.1704    7040.5092   -148793.61   -141753.11   -141967.45   -566.78607    605912.61   -775.96798   -837.60467   -86.785568    424.08934   -260.23826    305.92671 
   26100    1690.8681    6993.7609   -148770.35   -141776.59   -142087.68   -822.08441    606299.61   -548.61808   -847.27099   -1070.3641    93.508785   -312.85786    46.325121 
   26200    1682.3229    6958.4162   -148746.33   -141787.92   -141435.76    932.17345    605279.35    1310.9305    761.39803    724.19179    448.15974    55.331175   -34.212678 
   26300    1695.5149    7012.9808   -148789.27   -141776.29   -141442.61    883.32583    605228.44    677.26917    378.78987    1593.9184   -175.77626   -392.17678    216.04829 
   26400    1706.2548    7057.4033   -148789.95   -141732.54   -141991.66   -684.77644    606245.38   -620.25591   -808.40873   -625.66469    229.65229   -468.31164    273.22569 
   26500    1707.0522    7060.7014   -148746.41   -141685.71   -141720.36   -91.595694    606044.82   -370.09085   -290.65939    385.96316   -332.63574   -354.96886    283.01889 
   26600    1705.6875    7055.0567   -148729.75   -141674.69   -141353.96    848.63163    605517.18    574.47584    871.72053    1099.6985    499.75236    244.82472   -536.77913 
   26700    1708.6259    7067.2106   -148753.75   -141686.54   -141909.15   -588.12635    606434.76   -933.29442   -829.47608   -1.6085462    39.017615    -512.0804    17.712807 
   26800    1700.9265    7035.3644   -148743.83   -141708.46   -142410.85   -1854.1531    606935.08   -2010.2481   -2342.8085   -1209.4027   -58.975137   -379.91662   -120.98867 
   26900    1683.9735    6965.2433   -148699.38   -141734.14   -141944.04   -554.59892    606374.39    -1193.587    206.85502   -677.06479   -552.57597    109.70767    186.18106 
   27000    1699.5021    7029.4728   -148771.89   -141742.42   -141452.38    767.73613     605272.2    618.74034    1242.7432     441.7248    135.83746    -379.3255    81.680641 
   27100    1704.7484    7051.1724    -148798.6   -141747.43   -141587.38    423.58528    605383.31    131.36519     403.2813    736.10935   -509.54835    58.391438   -363.01536 
   27200    1696.2146    7015.8751   -148767.58    -141751.7   -141729.11    59.737176    605885.15   -184.62603   -27.100582    390.93814     -73.3547   -134.72933   -776.32837 
   27300    1708.3899    7066.2344    -148824.1   -141757.86   -141908.06   -397.24591     605775.1    -848.8302    -283.4128   -59.494721    269.56211   -152.80945    113.65873 
   27400    1688.0407    6982.0661   -148769.19   -141787.12   -141776.59    27.865352    605662.44    323.00717   -147.18791   -92.223202   -65.205263    23.073604    181.65682 
   27500     1690.459    6992.0686   -148816.03   -141823.96    -141199.3     1655.805    604429.78    1456.9893    1900.2963    1610.1295    31.559484   -284.54333      93.4674 
   27600    1681.0526    6953.1621   -148808.71   -141855.55   -141676.65    473.52152     605328.4    400.22364    788.79108    231.54983   -698.52847   -158.06795   -42.615457 
   27700    1680.7503    6951.9117   -148808.89   -141856.98   -142331.69   -1255.1355    605963.06   -1686.9978   -1077.9191   -1000.4896    36.177117   -391.42572   -275.42921 
   27800    1701.8382    7039.1354   -148860.94    -141821.8      -141970   -392.22659    605369.09   -1205.1717   -55.268484    83.760455   -842.19435   -10.837672   -231.78852 
   27900     1697.749    7022.2215   -148803.88   -141781.66   -141715.98    173.83989    605380.71   -262.72814    421.61787    362.62996   -629.59769    110.57203    394.43738 
   28000    1701.6007    7038.1529   -148796.41   -141758.26   -141703.57    144.67587       605695   -189.97905    604.09542     19.91125   -637.78014    97.664753     760.8667 
   28100     1697.766    7022.2919   -148768.79   -141746.49   -141769.94   -62.029613    605596.75    68.025449    196.34627   -450.46056   -116.87367    249.58197    221.78953 
   28200    1694.1225    7007.2215   -148746.33    -141739.1   -142225.08   -1283.5749    606601.03   -665.64089   -1350.8826   -1834.2012    565.67829    -96.54429    383.37942 
   28300    1697.4798    7021.1081   -148745.96   -141724.86   -141936.13   -558.36542    606225.91   -346.72233   -143.00526   -1185.3687    210.83838    -602.4158    282.46022 
   28400    1715.0593    7093.8203   -148795.16   -141701.34   -141207.75    1306.9223    605100.79    741.52834    1482.9973    1696.2413   -404.23555    -194.9093    204.51611 
   28500    1713.0927    7085.6862   -148779.34   -141693.65   -141155.84    1424.5825    604861.57     1505.281      1832.45    936.01644   -640.87005    222.00283    282.09527 
   28600    1707.3027    7061.7374   -148768.32   -141706.58   -141796.39   -237.48097    605880.69     249.8809   -488.12774   -474.19606   -199.78728    888.09784    322.96431 
   28700    1695.6963    7013.7311   -148751.88   -141738.15   -142043.94   -807.88283    606451.39    -932.6498   -914.52929   -576.46942     101.2058    123.66809   -244.56387 
   28800    1691.2675    6995.4128   -148783.55   -141788.14   -142095.16     -811.393    606257.82   -1031.0303   -653.96011   -749.18857    296.12685    460.23035    418.19782 
   28900    1690.6278    6992.7669   -148809.52   -141816.76   -141527.46    766.00558    605097.05    1052.1913    844.55651    401.26896    239.44944    195.34151   -156.05805 
   29000     1690.567    6992.5156   -148814.61    -141822.1   -141144.47    1796.0843    604466.35    1129.2505    1969.4164     2289.586    147.47388    3.5941333    31.211829 
   29100    1697.8293    7022.5538   -148829.71   -141807.16   -141824.07   -44.739295    605512.79   -468.41076   -13.822573    348.01545   -173.73497    154.77482    291.33246 
   29200    1696.2487    7016.0162   -148795.81    -141779.8   -142134.74   -937.99076    606281.38   -1142.5707   -765.54222   -905.85934   -472.25273     890.4796    57.347939 
   29300    1700.3319    7032.9051    -148787.8   -141754.89   -141861.26   -281.21895    605967.83   -959.15181    555.43837   -439.94341     89.85445   -698.22704   -292.96133 
   29400    1699.7206    7030.3765   -148769.73   -141739.35   -141271.43    1238.8353    605165.25    944.28699    1477.7871    1294.4318   -313.95951   -509.27588    41.402977 
   29500    1700.2862    7032.7161   -148761.77   -141729.06   -141415.62    829.51058    605404.93    940.01872    747.19631     801.3167     -220.707   -187.74394   -399.63793 
   29600    1705.3596    7053.7005   -148774.46   -141720.75   -142103.68   -1012.3662    606026.44   -842.06828   -1589.7634   -605.26696    96.694565   -792.70162    96.495859 
   29700    1700.4209    7033.2731   -148749.65   -141716.38   -141851.26   -356.63132    605981.07   -685.24349    -598.8814    214.23091    157.97275   -106.60222    315.75291 
   29800    1688.1107    6982.3558   -148692.41   -141710.05   -141459.41    663.05614    605627.88    774.38697    904.93085    309.85061    124.33766   -345.71543    468.26402 
   29900    1709.2721    7069.8832   -148752.97   -141683.08   -141477.71    543.31376    605632.49    294.23936    268.78547    1066.9164    100.25546     471.4537     193.6956 
   30000    1705.7803    7055.4405   -148708.09   -141652.65   -141839.14   -492.78705    606321.63   -789.43636    1.8447144    -690.7695    213.96485   -255.16693    289.96827 
   30100    1711.4846    7079.0346   -148702.05   -141623.02   -142134.97   -1351.3157    606984.84   -1556.4885    -1059.283   -1438.1756   -14.687165   -101.34755   -68.001291 
   30200    1714.1166     7089.921   -148699.21   -141609.29   -141855.01   -649.08095    606536.16   -1134.8344   -4.4671827   -807.94126   -151.85929   -234.18209   -92.478901 
   30300    1700.8852    7035.1936   -148653.06   -141617.87   -141237.26    1006.7674    605707.45    466.68549    1948.6777    604.93911   -95.105581    332.29567   -209.98573 
   30400    1697.4461    7020.9689   -148670.38   -141649.41   -141190.79    1213.2655    605625.42    917.05802    1422.1362    1300.6024    410.55932     480.0299   -310.87146 
   30500    1707.4071    7062.1694   -148756.15   -141693.98   -142110.45   -1100.2415    606460.78   -875.65868   -1280.3052   -1144.7606   -257.27112   -251.60538    -477.6027 
   30600    1691.3304    6995.6729   -148721.61   -141725.93   -142369.41   -1699.0271    606796.63   -1009.2392   -1713.5759   -2374.2661    494.61189     340.1493   -498.33045 
   30700    1698.2761    7024.4018   -148766.49   -141742.08    -141629.7    297.49747    605258.77    213.51849    792.00396   -113.03004    204.43594   -34.381096   -443.82706 
   30800    1705.3414    7053.6254   -148814.64   -141761.02   -141511.74    660.10534    605038.52    912.49936    759.13453    308.68214   -128.63583   -173.71277   -84.240263 
   30900    1697.8303     7022.558   -148804.19   -141781.63   -141707.38    196.50023     605417.1    298.04804     512.5038   -221.05116   -492.69997    271.79562   -115.44039 
   31000    1692.4428    7000.2742   -148797.38   -141797.11    -142120.2   -854.18059    606023.01   -297.25554   -737.37886   -1527.9074   -770.89292    93.431022   -38.906605 
   31100    1695.7613    7014.0001   -148811.08   -141797.08   -142082.42   -754.35156     606049.8   -382.45722    -849.2276   -1031.3699   -829.05269     639.4573   -78.879738 
   31200    1701.5861    7038.0924   -148814.87   -141776.78   -140953.33    2183.7727    604145.59    2496.1607    1855.3178    2199.8397    204.43173  -0.34989249    109.84729 
   31300    1704.5317    7050.2762   -148782.35   -141732.07   -141455.45    732.12389    605363.73    626.63031    990.19656    579.54481   -163.71452   -48.097563    405.47878 
   31400      1707.51    7062.5949   -148747.86   -141685.26   -142086.56   -1060.0396    606529.69   -658.64061   -682.40531   -1839.0729     149.6602    24.547839    403.43418 
   31500    1688.5128    6984.0187   -148655.42   -141671.41   -141914.99   -643.19034    606773.84   -216.11153   -637.78531   -1075.6742   -361.88035    245.70812     372.1388 
   31600    1705.3528    7053.6723      -148717   -141663.33    -141832.2   -446.21426    606350.04   -313.43567   -1042.5386    17.331516    759.06944    368.49345    260.86952 
   31700     1702.878     7043.436   -148717.56   -141674.12   -141350.86    855.26091    605576.65    359.64123     858.2975     1347.844    569.49783    724.61849    37.788401 
   31800    1702.5759    7042.1864   -148740.29   -141698.11    -141411.1    759.41634    605510.94    966.17533     531.6288    780.44489    427.17402    565.67002    253.88029 
   31900    1709.8716    7072.3629   -148794.84   -141722.48   -141974.62   -666.49671     606105.8   -46.926977   -1181.6885   -770.87467     736.5619   -23.052196    239.90945 
   32000    1687.2263    6978.6976   -148725.87   -141747.18   -141807.72    -160.0633    606012.43    77.359321   -59.622114    -497.9271    163.68269    273.27685    233.02444 
   32100    1697.6438    7021.7865   -148776.07   -141754.28   -141405.21    924.31544    605066.42    515.69095    1173.6826    1083.5728    343.99601   -198.24748   -70.003054 
   32200    1698.6005    7025.7434   -148781.22   -141755.48   -141589.95    437.98498    605522.26    685.12791    581.77883    47.048208    259.07845    235.23597   -62.483067 
   32300    1695.0479    7011.0491   -148768.64   -141757.59   -142462.52   -1861.7255    606655.16   -1874.4807   -1682.5563   -2028.1394    827.21426    730.79784   -40.714891 
   32400    1696.7062    7017.9085   -148774.58   -141756.67   -142225.39   -1237.9884    606601.37   -804.47127   -1458.7909   -1450.7031    196.55906     132.8659    138.13192 
   32500     1710.386    7074.4907    -148826.1   -141751.61   -141518.83     616.4616    604975.06    258.91151    690.78168     899.6916    111.66195    618.55347     153.5193 
   32600    1705.5735    7054.5854   -148805.94   -141751.35   -141185.99    1498.1539    604610.96    1548.2144    1633.8915    1312.3559    232.75849    562.31752    445.02929 
   32700     1707.234    7061.4534   -148814.69   -141753.24   -141888.86    -358.7354    605711.03   -606.52703   -761.09694    291.41777    359.82706    108.28614    695.75037 
   32800     1694.901    7010.4417   -148767.93   -141757.49   -142060.04   -799.73377    606128.72   -1175.9085   -301.12636    -922.1665   -292.79161   -87.549663    27.674364 
   32900    1699.1412    7027.9798   -148782.63   -141754.65   -141535.16    581.08584    605189.33    140.80847    580.34626    1022.1028   -1.9590412    126.29285    156.25297 
   33000    1698.3719    7024.7979   -148770.03   -141745.23   -141048.04     1847.037    604765.81    1913.0757    1882.6878    1745.3474    10.308116    268.30824   -184.05736 
   33100    1704.8495    7051.5904   -148779.76   -141728.17   -141729.19   -2.7143264    605796.86     272.6668    145.06363   -425.87341    743.74474   -34.943977    124.23065 
   33200    1698.0362    7023.4093   -148725.02   -141701.62   -142218.76   -1365.3058    606864.36   -1564.6019   -767.92992   -1763.3857   -107.03112    158.93873   -621.10541 
   33300    1702.5961    7042.2701   -148707.63   -141665.36   -141877.63   -560.87566    606364.87   -1095.4984   -209.83151   -377.29706   -574.84995   -63.782371   -402.40733 
   33400    1711.0328    7077.1658   -148705.74   -141628.58   -141625.18    8.9820239    606179.06   -86.827178    322.85161   -209.07836   -665.19987   -487.87955    2.4009201 
   33500    1714.5899    7091.8789   -148700.29   -141608.41   -141298.64    819.43219    605682.34    976.20586      252.101    1229.9897    -282.3662    468.61625   -65.102623 
   33600     1712.464    7083.0858   -148694.84   -141611.75   -141473.64    365.08301    606095.68   -61.429519    826.86618    329.81238   -100.76425    250.37544    741.15054 
   33700    1703.7911    7047.2131   -148689.84   -141642.63   -141915.96   -721.92239    606606.25   -1234.6526   -616.21306   -314.90149    825.42269    265.45776    454.91148 
   33800    1696.1004    7015.4028   -148697.22   -141681.81   -141831.13    -394.6363    606201.45    33.115665   -572.91159   -644.11299    154.45582    52.506383   -246.80578 
   33900    1694.9262    7010.5459   -148708.41   -141697.86   -141684.71    34.788665    605889.32    69.577559   -339.61316    374.40159    149.47042   -177.48781    444.34853 
   34000    1711.2605    7078.1077   -148778.86   -141700.75   -141221.38     1269.725    604875.51     1411.516    1235.2145    1162.4445   -78.279218   -804.88648    -585.2975 
   34100    1701.8958    7039.3735   -148752.28   -141712.91   -141204.32    1347.2404     604826.9    1587.8889    1791.7411    662.09109    33.162106   -92.409942    506.08242 
   34200     1696.359    7016.4724   -148738.57    -141722.1   -141852.54   -344.79148    606143.93   -405.71385    2.8666271   -631.52721    94.252632   -580.97347    184.70114 
   34300    1694.8916    7010.4029   -148737.36   -141726.95   -142310.84   -1541.8838    606718.88   -1108.6156   -1171.9324   -2345.1033   -37.972868   -63.421345    434.77246 
   34400    1696.3842    7016.5763   -148740.87   -141724.29   -141640.25    222.30368    605696.76    131.27021    116.51552     419.1253    461.36467    28.384624   -174.69518 
   34500    1704.3597    7049.5648   -148763.11   -141713.54   -141422.61    770.18355    605209.24    48.371411    1497.2981    764.88111    269.14938   -75.672687    -45.87497 
   34600    1707.3987    7062.1347   -148760.68   -141698.54   -141647.48    135.08418    605678.12   -124.62825    643.77306   -113.89229   -60.186309   -47.236993   -83.907931 
   34700    1704.7716    7051.2682   -148740.39   -141689.12   -142028.51    -896.6272     606462.4   -751.20291   -928.01703   -1010.6616    495.59797   -647.96346    322.95751 
   34800    1701.0091    7035.7062   -148726.02   -141690.31    -142147.8   -1208.2675    606631.51   -1360.2367   -668.44406   -1596.1217     256.5703   -340.83173   -531.59109 
   34900    1695.7408    7013.9155   -148719.48   -141705.57   -141589.05      308.186    605749.58    51.852369    1206.9056   -334.19999    33.719253   -51.285848   -258.32496 
   35000    1707.0373      7060.64   -148791.84    -141731.2   -141599.23    349.41672     605126.7     385.9536    835.54281   -173.24624    421.16478   -428.27537   -560.28907 
   35100    1700.0435     7031.712   -148798.02    -141766.3   -141262.96     1333.903    604571.66    1215.3378    1832.9964    953.37481    574.71924   -718.26532   -413.62643 
   35200    1689.1719    6986.7451   -148782.43   -141795.68   -141688.45    283.83344    605290.44    651.06212    57.175611    143.26259     234.7225    118.19221   -605.76425 
   35300    1692.1075    6998.8873   -148799.81   -141800.93   -142355.95   -1465.9195    606614.99   -1473.6201   -1273.9577   -1650.1808   -335.21543    94.981831     -176.246 
   35400     1684.352    6966.8091   -148763.51    -141796.7   -142084.52   -760.72418    606178.95   -809.27345   -1097.2814   -375.61768    496.42949   -176.13254    -186.5708 
   35500    1687.4547    6979.6421   -148759.17   -141779.53   -141648.98    345.40605    605561.15    399.61992    812.60717   -176.00894    311.98185   -10.924316    474.58437 
   35600    1701.3522    7037.1252   -148779.26   -141742.14   -141398.91     908.7349    605144.26    268.78207    1082.5833    1374.8393    361.59354    318.21475   -57.811285 
   35700    1701.3375    7037.0644    -148742.9   -141705.83   -141889.63   -485.73336    606256.63   -799.17472    144.48097   -802.50633   -178.35763   -163.78844    197.53111 
   35800    1700.7107    7034.4717   -148725.74   -141691.26   -142286.26   -1570.4629    607010.89   -1235.0239   -1118.6491   -2357.7157    332.71867    388.52574    235.84907 
   35900     1698.783    7026.4984   -148716.09   -141689.59   -141885.11   -516.64379    606326.04   -1058.8727   -507.73397    16.675258    137.47659    22.978173   -59.503275 
   36000    1712.7667    7084.3377   -148775.29   -141690.96   -141405.68    755.14681    605272.73     722.4259    795.19372     747.8208    -69.18154   -231.97888   -197.17429 
   36100    1701.1175    7036.1542   -148742.47   -141706.32   -141478.35    603.19115    605535.73    829.89594    538.41257    441.26494    269.78479   -145.82722    69.143392 
   36200    1699.6351    7030.0229   -148751.51   -141721.48   -141889.81   -444.92857    606129.71   -539.47746   -498.50714    -296.8011    900.45008    155.09629    273.76515 
   36300    1691.0356    6994.4537   -148731.21   -141736.75   -141879.45   -377.22764    606069.71   -745.23347   -283.14966   -103.29979    70.187388   -239.63118   -62.050794 
   36400    1702.4344    7041.6013    -148787.1    -141745.5   -141462.84    748.16758    605318.85    421.74041    733.26854    1089.4938   -218.15759   -192.44413   -202.57475 
   36500    1702.4749     7041.769   -148803.78   -141762.01   -141524.56    628.72884    605088.59    372.13388    629.70267    884.34998    508.36835    40.561248    258.59357 
   36600    1688.7608    6985.0446   -148772.39   -141787.35   -141762.45    65.875063    605623.36    493.64436   -608.90651    312.88734    420.04822    61.186052     70.31496 
   36700    1698.7509    7026.3658   -148834.13   -141807.77   -141748.79    156.12159    605244.92   -127.38553    77.504248    518.24605    255.90783     307.6349   -4.5788695 
   36800    1697.3935     7020.751   -148847.49   -141826.74   -141803.96    60.301587    605105.16    17.910593    -270.5111    433.50526   -188.45705    25.393626    241.22764 
   36900    1696.1763    7015.7165   -148842.08   -141826.37   -141387.61    1163.0859    604399.05    1187.7259    987.21291     1314.319    273.95627    6.4509388     196.1665 
   37000    1705.3721     7053.752   -148865.29   -141811.54   -141276.25    1419.3014    604259.21     1322.545    1036.6562    1898.7031    470.93492   -46.081253    277.35549 
   37100    1706.0351    7056.4947   -148837.63   -141781.13   -141883.83   -271.79442    605351.52   -50.631043   -737.33857   -27.413657    468.70125    91.631999    149.74827 
   37200    1693.0545    7002.8041   -148745.49   -141742.68   -142184.01   -1165.8359    606498.59   -917.94852    -1338.278    -1241.281    208.11401   -207.91355    276.47472 
   37300    1695.9273    7014.6868   -148726.08   -141711.39   -141871.86    -423.9765    606400.31   -624.98709    27.790321   -674.73275   -51.214704   -131.91606     416.4511 
   37400     1697.544    7021.3736      -148716   -141694.62   -141393.82    795.77004    605622.31     579.0789    1073.0699    735.16133     292.6376   -394.48533    164.65922 
   37500    1705.1474    7052.8227   -148735.79   -141682.96   -141079.55    1598.3108    604877.69    1616.4257    1893.9042    1284.6026   -4.6955591    339.92551    502.49196 
   37600    1714.2614    7090.5199   -148773.73   -141683.21   -141814.99    -348.3247    606143.15   -665.81965   -310.48168    -68.67275    -556.4868    154.31587    85.749343 
   37700    1698.1346    7023.8166   -148714.85   -141691.04   -142018.95   -866.08816    606615.81   -771.63988   -445.67404   -1380.9506   -486.08365    172.99011    270.31603 
   37800    1700.1061    7031.9709   -148733.83   -141701.85   -141592.25    289.89222    605764.64    359.28857    601.45001   -91.061934   -322.13851   -381.94625    167.11279 
   37900    1707.6742    7063.2741   -148792.58    -141729.3   -141569.19     423.5869    605617.34    716.89984    122.01467    431.84618      367.161     266.2173    256.40377 
   38000    1700.2692    7032.6454   -148813.48   -141780.84   -141225.74    1470.8569    604658.37    1894.1939    914.92494    1603.4518    393.68643    -121.2184   -164.43544 
   38100    1689.8744    6989.6507   -148813.71   -141824.06   -141672.57    401.04461     605204.8    939.67449    195.38264    68.076693   -91.121802   -272.79199   -254.04926 
   38200    1695.3686    7012.3759   -148841.84   -141829.47   -142193.99    -963.8992     605896.2   -931.99333   -1362.7901   -596.91412   -161.54676   -55.755842    58.621425 
   38300     1685.955    6973.4394   -148799.67   -141826.23   -142008.12   -481.08113    605757.38   -613.33361   -963.63625    133.72645   -247.60891   -324.48311   -60.824536 
   38400     1702.034    7039.9451   -148846.77   -141806.83   -141612.64    514.25013    605003.49    478.47061    143.91771    920.36207   -393.67604   -556.24997   -538.50957 
   38500    1704.6755    7050.8709   -148839.82   -141788.95   -141843.04   -143.05154    605723.84   -12.920181   -801.40966    385.17523   -403.15385    287.40855   -152.67212 
   38600     1696.775    7018.1931   -148795.49    -141777.3    -141695.5    216.39644    605606.29    -17.45615    767.51764   -100.87217     60.00626    626.89337    -101.7978 
   38700    1695.5121    7012.9695    -148774.9   -141761.93      -141608    407.22102    605625.91    622.89469    155.37465    443.39372    196.84848    416.79952    358.17606 
   38800    1699.5244    7029.5648   -148758.54   -141728.98   -141680.77     127.5068    605829.17    831.57823   -113.43371   -335.62411    -108.4984    564.62737     40.59905 
   38900    1708.4316     7066.407   -148753.49   -141687.08   -142104.15   -1101.6269    606569.85   -1379.1193   -654.68723   -1271.0742   -450.27074    111.01296   -132.99967 
   39000    1694.5713     7009.078   -148684.83   -141675.75   -142536.61   -2269.5881    607708.53   -2489.9846    -2373.744   -1945.0357   -26.537616     160.3527   -636.99958 
   39100    1699.4294     7029.172    -148707.4   -141678.23   -141397.37    742.95793    605652.02    994.32533    802.61042    431.93803    389.97081    239.73638   -372.76421 
   39200    1706.6098    7058.8714   -148749.91   -141691.04    -141415.8    728.34469    605456.47     854.5309    289.61365    1040.8895     159.1974    359.53332    595.71645 
   39300    1715.4431    7095.4079   -148799.03   -141703.62   -141615.53    233.03707    605624.21    807.52896    772.64624   -881.06398          344    402.81242   -409.97763 
   39400     1704.381    7049.6529   -148775.48   -141725.83    -141765.5   -104.85335    606077.14     77.44532    401.28189   -793.28727    215.50019     272.3241    303.71866 
   39500    1691.6952    6997.1818   -148749.36   -141752.18    -141740.8    30.084582     605988.2    552.58071   -207.57953   -254.74743    236.23231    568.04655   -83.156582 
   39600    1702.9045    7043.5457   -148806.45   -141762.91    -141593.4    448.67282    605306.81    507.99623    530.90633    307.11591   -60.054507   -22.307829    523.48062 
   39700    1690.5875    6992.6004   -148756.39   -141763.79   -141381.45    1012.0131    605311.99    671.04497    1028.7945    1336.1998   -224.14142    275.23349   -290.06847 
   39800    1697.2117    7019.9992   -148772.65   -141752.65    -141811.5   -155.59684    605968.38    351.27467   -412.63684   -405.42833   -280.72829   -17.908848    90.609407 
   39900    1697.6642    7021.8709   -148755.46   -141733.59   -142286.57   -1459.7534    606936.97   -1497.9772   -1676.8539   -1204.4292     -357.724   -423.77568   -465.60166 
   40000     1697.439    7020.9393   -148741.26   -141720.32   -142117.17   -1048.1269    606633.95   -1219.1791   -951.19214   -974.00932   -100.11606    104.22878    282.47419 
   40100    1691.8328     6997.751   -148712.92   -141715.16   -141354.97    953.10086    605498.26    1227.9705    833.79726    797.53482   -40.685244   -730.46412   -185.19167 
   40200    1699.8966    7031.1043   -148741.52   -141710.42   -141297.42      1093.08    605351.56    318.13792    1562.7775    1398.3247    894.95956    426.22899   -273.81914 
   40300    1711.8018    7080.3468   -148787.21   -141706.86   -141882.83   -465.19598    606059.05   -544.56384   -484.57854   -366.44557    599.84228    478.85106    406.25172 
   40400    1696.2369    7015.9673   -148726.95   -141710.98   -141838.61   -337.32312    606181.57   -486.99075   -192.67185   -332.30676    847.77731    153.65973    80.455181 
   40500    1709.4387    7070.5723    -148788.6   -141718.02   -141884.78   -440.83458    606046.27   -126.08134   -698.92843   -497.49397    90.981921    268.09069   -121.34789 
   40600    1690.0157    6990.2351   -148731.24   -141741.01   -141816.53   -199.63238     606125.2   -23.251972   -1260.9742    685.32903    92.352072    517.22539    317.05454 
   40700    1690.4958     6992.221   -148746.98   -141754.76   -141483.41    718.37039    605193.18    1200.5886   -80.193351     1034.716   -152.52583    104.57884    324.42228 
   40800    1703.1745    7044.6625   -148791.43   -141746.76   -141546.07    531.42848    605060.13    423.08097    515.49873    655.70573    451.04494   -206.68967   -128.63903 
   40900    1702.9952    7043.9208   -148761.18   -141717.26   -141795.29   -206.30641    605964.44   -328.23039   -853.51465    562.82581   -28.265214   -504.79591    -633.1392 
   41000    1697.2986    7020.3585   -148685.61   -141665.25   -142218.56   -1460.9132    606818.19   -1009.2498   -1901.2311   -1472.2586    486.04558   -1085.6726   -495.82454 
   41100    1693.2688    7003.6907   -148630.65   -141626.96   -141950.77    -854.4221    607203.92   -599.19533   -1443.7986   -520.27232    168.03902   -388.49283   -65.218554 
   41200    1700.1005    7031.9477   -148642.08   -141610.13   -141168.97    1166.8815    605741.12    1323.3699    1155.4044    1021.8701    361.48317   -246.76183    208.50666 
   41300     1717.905    7105.5905   -148716.25   -141610.66   -141617.25   -17.415426    606139.98    41.564692   -982.18986    888.37889    171.90414    -64.11155   -336.42127 
   41400    1711.0818    7077.3685   -148714.83   -141637.46   -142235.08   -1577.5044    606965.85   -1495.0819   -2194.9796   -1042.4518   -105.38343    251.32827   -357.92273 
   41500    1703.8569     7047.485   -148719.29   -141671.81   -141739.36   -178.59452    606053.13   -794.91813    -78.65855    337.79312    890.57396    344.57319    411.38895 
   41600    1697.2842    7020.2992   -148717.43   -141697.13   -141126.04    1511.9151    605188.22    1722.4124    779.54504    2033.7879    397.56136     675.3114    2.7378646 
   41700    1711.4328    7078.8202      -148786   -141707.18   -141404.78    800.49756    605229.23    710.91576    795.22822    895.34869    263.74497    -379.7157   -25.189405 
   41800    1694.8109    7010.0692   -148729.04   -141718.97   -142043.05   -856.35445    606331.57   -772.25059   -1311.5227   -485.29012    235.78647    558.76704    -20.24794 
   41900    1699.8439    7030.8865   -148757.73   -141726.84   -142119.68   -1037.8787    606435.52   -319.54583   -1378.5236   -1415.5668    121.96487    114.78255   -215.02504 
   42000    1693.2941    7003.7951   -148740.14   -141736.35   -141905.12   -446.17772    606041.18   -350.05522   -953.06291   -35.415019    401.70602    281.78326   -406.10017 
   42100    1699.5675    7029.7433   -148766.84    -141737.1   -141048.93    1822.8843    604851.59    1604.3036    2243.7737    1620.5756   -43.387231   -31.981985    330.92062 
   42200    1697.6712    7021.8998   -148756.75   -141734.85   -141440.09     780.1083    605382.45    1278.9181    1011.7399    49.666879   -248.80444    124.75058     288.8327 
   42300    1694.1984    7007.5355   -148722.55   -141715.02    -142149.5   -1147.0449     606876.4   -419.35879   -1193.4398   -1828.3362   -464.51043    36.931431    272.94249 
   42400    1702.1735    7040.5221   -148717.79   -141677.26   -142077.34   -1056.4961    606721.07    -827.2498   -638.13449    -1704.104    342.19085    438.52886   -54.176886 
   42500    1708.5374    7066.8444    -148716.4   -141649.55   -141513.81     358.9638    605853.57    584.35709    271.94798    220.58634    319.04703    47.903234    408.82699 
   42600    1721.3538    7119.8558    -148758.4   -141638.54   -141112.42     1393.388    604963.62    764.05763    1243.0865    2173.0198   -324.71733    233.13571    199.31016 
   42700    1708.2596    7065.6953   -148717.81   -141652.12   -141223.32    1134.7002    605450.93    1837.5929    555.62772    1010.8799   -43.616696   -275.66413    170.15925 
   42800     1704.483    7050.0746   -148735.33   -141685.26   -141897.54   -560.97081    606306.96   -479.23668   -593.81502   -609.86074    200.66535    192.71329    308.07444 
   42900    1709.3652    7070.2686   -148798.05   -141727.79   -142059.96   -878.00982    606142.55   -734.90239    -1353.054    -546.0731    63.192111   -348.17181    175.70556 
   43000    1697.7997    7022.4314   -148776.94   -141754.51   -141819.07   -170.70457       605875   -728.26659    340.51334   -124.36045     255.6264   -126.15088    927.29369 
   43100    1703.1326    7044.4892   -148810.81   -141766.33   -141770.79   -11.819544    605721.64      63.9152   -432.78718    333.41335    559.25443     243.6839    685.39345 
   43200    1701.0359    7035.8169   -148809.28   -141773.46   -141242.37    1407.8596    604394.81    1455.0271     1156.013    1612.5387   -10.650566    220.73502    121.54945 
   43300    1687.3792    6979.3299   -148755.31   -141775.98   -141812.96    -97.80381    605820.38   -751.81165   -266.62099    725.02122    264.52299   -262.53307    224.44157 
   43400    1690.8018    6993.4867   -148755.32   -141761.83   -142393.83   -1668.2734    606956.82    -2209.543   -2143.9531   -651.32405    45.865463   -126.57639    309.64612 
   43500    1696.6148    7017.5304   -148750.72   -141733.19   -141929.95   -519.97173    606282.61   -728.27632   -330.88004   -500.75883    89.101814   -239.05379    148.07197 
   43600    1711.1654    7077.7144   -148772.82    -141695.1   -141601.78    246.88114    605626.64    527.89371    470.84764   -258.09793   -405.00226    477.97398   -442.77989 
   43700    1700.8974    7035.2439   -148709.56   -141674.31   -141194.05    1271.0797    605359.35    1568.4208    1344.7796    900.03858   -47.892148      348.018    -689.2398 
   43800    1713.6925    7088.1668   -148754.76   -141666.59   -141225.16    1168.8183    605092.96    1010.8373    1466.4475    1029.1703   -93.568255    148.29129    439.12773 
   43900    1711.5933    7079.4844   -148747.18    -141667.7   -141990.71   -853.39367     606422.9   -853.60837    -513.4477   -1193.1249   -43.694598    17.127815   -230.44326 
[...]
 2089600    409.57219    1694.0706   -157714.47    -156020.4    -156380.2   -1020.0937    565098.57   -1460.8005   -890.86797   -708.61258    199.87011   -194.21824    236.51107 
 2089700    406.53297    1681.4998   -157711.17   -156029.67   -155985.17    126.30013    564525.56   -149.89236    205.67489    323.11787    280.69173   -298.14624    489.64131 
 2089800    407.47642    1685.4021   -157720.44   -156035.04   -155726.99    874.87951    564145.45    607.45839     877.2295    1139.9506    352.27936   -51.943342    200.90384 
 2089900    407.37068    1684.9647    -157722.7   -156037.74   -156084.07   -131.46355    564619.55   -271.93695   -229.53409    107.08038    338.00584    218.50654    221.85123 
 2090000    405.14697     1675.767   -157712.22   -156036.45   -156215.17    -506.9821    564770.71   -874.68904   -466.63362   -179.62363    213.87698   -19.055382    54.393268 
 2090100    409.01872    1691.7813   -157720.96   -156029.18   -156001.38    78.891221    564563.17   -231.71175   -35.021571    503.40698   -135.24126    48.032059    162.16272 
 2090200    408.03658     1687.719   -157706.91   -156019.19   -155941.34    220.95231    564508.84    -210.7586    372.70526    500.91025     114.4442   -230.88403    188.75558 
 2090300    410.85467    1699.3752   -157708.84   -156009.47   -156026.15   -47.342108    564602.17    -118.7956   -386.73092    363.50019    226.74786   -192.77687    76.460819 
 2090400    409.44719    1693.5536   -157701.55      -156008   -155987.51    58.125698    564533.45   -422.66478    -70.40242    667.44429    249.12608   -152.79787    234.56226 
 2090500     409.2271    1692.6432   -157701.78   -156009.13   -156002.57    18.633645    564609.42   -179.92983   -153.07655    388.90731     206.8153   -94.036703    138.62801 
 2090600    410.84745    1699.3453    -157711.8   -156012.46   -156053.58   -116.66444    564709.36   -232.53312   -70.709436   -46.750752    203.17858    15.890449    32.284853 
 2090700    406.43294     1681.086   -157700.37   -156019.29   -156031.77   -35.415062    564667.54   -234.33601   -143.18724    271.27807    147.61918    132.82199    127.59544 
 2090800     408.5287    1689.7545   -157715.53   -156025.77   -156114.39    -251.4031    564723.77   -414.39104   -324.54245   -15.275807    252.30701    49.545724   -121.80649 
 2090900    407.64499    1686.0993    -157717.8    -156031.7    -156004.7    76.621339    564550.04   -132.60567    133.49085    228.97884    387.15814   -461.89698     -145.394 
 2091000    404.60658    1673.5319   -157709.29   -156035.76   -155858.65    502.78958    564363.94   -105.38495    569.37796    1044.3757    130.60989   -108.59484   -321.80091 
 2091100    406.14893    1679.9113   -157717.43   -156037.52   -156203.16   -469.87172    564832.87   -1007.6049   -302.53728    -99.47301   -16.849319    25.549337    4.1086394 
 2091200    406.44072    1681.1182   -157718.35   -156037.24   -156316.84   -792.89413     564988.8   -1156.8933   -630.48521   -591.30384    125.13181   -122.58484   -307.17777 
 2091300    405.94179    1679.0546   -157713.56    -156034.5   -155800.02    665.81713    564240.07    229.99085    571.66837    1195.7922     264.8254    210.06614   -37.853816 
 2091400    409.74432    1694.7826    -157720.6   -156025.82   -155781.78    693.04922    564153.99     544.0064    590.89896     944.2423    344.42533   -138.67011   -181.96079 
 2091500    410.43856    1697.6541   -157711.44   -156013.79    -156257.1   -690.02915    564942.79     -1159.33   -570.99037   -339.76706    316.98134    101.86755    301.52502 
 2091600     409.5612    1694.0251   -157701.67   -156007.64   -156216.69   -592.83345    564984.22   -983.25938   -385.61918   -409.62178    193.22613    102.18904    264.36809 
 2091700    410.11778    1696.3273    -157705.1   -156008.77   -155714.22    836.45319    564202.35    483.75848    1001.5643    1024.0368    140.33975    115.70987    165.65457 
 2091800       408.23     1688.519   -157703.77   -156015.25   -155862.27    434.23053     564419.1   -86.485889    661.09043    728.08704    31.628592    83.374399    24.104229 
 2091900    408.96333    1691.5522   -157713.96   -156022.41   -156286.63    -749.3419    564944.57   -923.28437   -621.03269   -703.70865    184.32342   -164.14536     15.11688 
 2092000    409.09667    1692.1038   -157719.76   -156027.66   -156102.15   -211.36353    564686.89    -276.7688   -157.38649   -199.93529    245.76042    186.94873    119.99219 
 2092100    405.26275    1676.2459   -157707.76   -156031.51   -155764.19    759.08959    564218.75    569.57307    913.14921    794.54648   -44.424577     173.5683    95.245724 
 2092200    408.45111    1689.4336   -157723.89   -156034.46   -156057.67   -65.857985     564589.9   -427.34806   -7.4556003     237.2297    313.06279    85.871721    77.285661 
 2092300     404.0619     1671.279   -157709.58    -156038.3   -156203.67    -469.1155    564765.61    -669.8256   -595.82977   -141.69113    213.75642   -25.060391    -163.0172 
 2092400    403.97265    1670.9098   -157712.58   -156041.67   -156066.54   -70.579736    564643.57   -65.179324    18.121237   -164.68112    475.81629    -26.75951    127.71981 
 2092500    405.84579    1678.6575   -157723.18   -156044.52   -155916.86    362.40274    564386.66   -93.721647    233.23065    947.69921    94.023067   -65.790138    87.029917 
 2092600    404.79281    1674.3022   -157722.38   -156048.08   -156084.38   -103.01181    564592.86   -695.16909    44.663433    341.47024     107.6214    15.691991   -100.12747 
 2092700    405.10772    1675.6047    -157727.8   -156052.19   -156127.16   -212.70785    564643.46   -620.17686   -118.94825    101.00154    171.21994     36.55581    227.63241 
 2092800    405.47121    1677.1081    -157735.5    -156058.4   -156006.26    147.98531    564462.41   -459.88418    445.17086    458.66924   -6.8932577    124.54539    231.85373 
 2092900    404.57699    1673.4095   -157737.19   -156063.78   -155886.96    502.03037    564299.42    61.377993    719.44379    725.26932   -63.219671   -140.73603    147.70679 
 2093000    403.30985    1668.1684   -157734.74   -156066.58   -156136.72   -199.04341    564602.79   -373.50745   -126.19334   -97.429441   -8.2719347    113.60829    218.28553 
 2093100    404.91187    1674.7946   -157737.28   -156062.49   -156198.37   -385.55522     564672.3    -611.3942   -513.11506   -32.156408   -47.863199    92.519685    28.527559 
 2093200    402.49291    1664.7893      -157718   -156053.21    -155950.5    291.52978    564432.49    -209.9452    400.83881    683.69572     75.95839   -10.780212    77.245703 
 2093300    406.61713    1681.8479   -157725.22   -156043.37   -155903.99    395.71517    564327.21    111.87311    474.18843    601.08399   -137.50177    81.300197    66.986378 
 2093400    407.90933    1687.1927   -157726.34   -156039.15    -156137.4    -278.7542    564702.12   -716.93612   -58.725261    -60.60123    191.64379    69.574213    188.22465 
 2093500    402.83194    1666.1916   -157704.64   -156038.45   -156130.82   -262.02686    564803.76   -586.37964   -449.21092    249.50999    4.3454034   -24.996527    172.02059 
 2093600    406.74334    1682.3699   -157719.86   -156037.49   -155988.55    138.89925     564500.8    -270.8762   -6.3155283    693.88947    86.058168    104.25215    112.99822 
 2093700    406.77054    1682.4824   -157721.07   -156038.59   -155916.79    345.73398    564408.21    -189.3626    517.38112    709.18341    264.74556    193.66828    315.71212 
 2093800    405.79951    1678.4661   -157721.83   -156043.37   -156155.25   -317.41128    564759.68   -483.89758   -335.61427     -132.722    39.243738    243.51839     149.4812 
 2093900     405.8849    1678.8193   -157730.79   -156051.97   -156202.22   -426.22327    564766.94   -178.60341   -618.80946   -481.25694    391.94252    59.923827     302.2912 
 2094000    402.75112    1665.8573   -157727.47   -156061.61   -155864.03    561.00505    564282.71    211.79073     712.2488    758.97562     281.7868    189.45174    284.26761 
 2094100    404.02213    1671.1145   -157736.61    -156065.5   -155881.85    521.48914    564218.17    37.262535    753.81214    773.39275    289.49621    100.85441    334.44692 
 2094200    401.57252    1660.9824   -157725.76   -156064.78   -156305.39   -682.41648    564906.83   -822.42929    -667.0471   -557.77305    342.37602     82.50686    298.73695 
 2094300    402.97811    1666.7962   -157728.18   -156061.39   -156304.81    -690.4938    564825.94   -824.01251   -728.88684   -518.58206    313.30895    182.61196    138.04565 
 2094400    403.38296    1668.4707   -157727.24   -156058.77   -155821.82    672.92511    564160.95    515.09158    716.39428    787.28948    47.714256    58.746543    152.75256 
 2094500      404.347    1672.4582   -157729.29   -156056.83   -155940.79    329.43742    564358.48   -1.2273936    196.89638    792.64329    250.42409     35.29087    41.748368 
 2094600    402.33791    1664.1482   -157719.47   -156055.32   -156370.51   -893.76855       565017   -1143.9098   -916.44002   -620.95587    345.79611    191.81341    168.34862 
 2094700    405.93252    1679.0162   -157730.53   -156051.52   -156060.88   -26.573139    564529.31   -301.19684   -212.61013    434.08755   -45.620393    5.6462718    27.862399 
 2094800    402.44378    1664.5861   -157712.53   -156047.95   -155721.18    928.09795    564100.64    462.82649    1157.8671    1163.6003   -6.0686659    212.72711    35.467297 
 2094900    407.25957    1684.5051   -157725.98   -156041.48   -156161.18   -339.61545    564700.17   -727.32743   -273.23455   -18.284375    232.22446    116.61367    144.73965 
 2095000    406.02805    1679.4114   -157712.18   -156032.77   -156319.77   -813.83493     565012.2    -927.4062   -1019.3064   -494.79221    29.614177    8.2093564   -47.859232 
 2095100    406.59449    1681.7543   -157708.64   -156026.89   -155841.29    526.93914    564334.78    339.97726    488.42523    752.41494    173.07166   -104.78938    68.740614 
 2095200    405.98081     1679.216   -157707.88   -156028.66   -155930.35    279.03125    564531.08    49.545505    300.37024    487.17801    304.37644     60.76113    180.32648 
 2095300    405.97745     1679.202   -157718.46   -156039.26   -156299.17   -737.10108    564956.26    -1173.524    -624.6246   -413.15461    257.92918    45.599147    308.07695 
 2095400    404.37054    1672.5556   -157722.41   -156049.85    -156060.1   -29.090668    564541.49   -575.31454    -52.29532    540.33785    135.72086    154.52219    91.698042 
 2095500    404.52893    1673.2107   -157728.39   -156055.18    -155848.9    585.79275    564187.75    430.45924    527.13951    799.77951    117.72843    84.674103     133.2458 
 2095600    407.00974    1683.4718   -157741.65   -156058.18   -156053.32    13.776362    564529.34   -211.42361  -0.94112628    253.69383    225.38807   -40.838692    121.53182 
 2095700    405.34248    1676.5757   -157738.89   -156062.31   -156210.07   -419.19906    564747.68   -864.68188   -468.26263    75.347324    60.037581   -33.149907    145.07284 
 2095800    402.66391    1665.4966   -157733.19   -156067.69   -155988.64    224.41681    564397.96   -246.23751    74.448515    845.03943    226.90244     223.2885     206.0747 
 2095900    402.88243    1666.4004   -157738.01   -156071.61   -155897.05    495.64369    564243.04    274.99677    487.56841     724.3659    140.18358    199.75489    377.85275 
 2096000    403.36712    1668.4052   -157741.69   -156073.29   -156094.48   -60.136292    564500.91   -327.83344   -240.29798    387.72255    34.520828      125.053    60.269258 
 2096100    401.13373    1659.1675   -157732.56   -156073.39   -156263.54   -539.36006    564833.39   -797.26502    -589.9954   -230.81977    343.65175   -63.883686    59.744052 
 2096200    402.54345    1664.9984   -157735.64   -156070.65   -156085.72   -42.791249    564488.66   -345.52463   -262.16238    479.31326    178.62871    69.573588    185.55529 
 2096300    404.78848    1674.2843   -157738.56   -156064.27    -155862.1    574.17084    564157.57    791.52499    270.34843    660.63911    102.51353   -86.656457    116.55375 
 2096400    406.22236    1680.2151   -157735.95   -156055.73   -156044.41    32.144645    564478.82    1.1515828    -312.1992    407.48156    107.49722    15.851787    454.11501 
 2096500    405.13509    1675.7179   -157725.43   -156049.71   -156224.78   -496.62223    564804.76   -961.33616   -348.87022   -179.66031    481.85338   -113.23472    132.35259 
 2096600    404.66183    1673.7604    -157722.7   -156048.94   -156113.47   -183.10641    564666.75   -394.18887   -324.07055    168.94018    298.35307    32.173893    -4.295234 
 2096700    405.13107    1675.7013   -157728.28   -156052.58   -155792.79    737.71953     564209.5    400.29535    810.79945    1002.0638    379.27426   -13.139152     106.3263 
 2096800    402.75223    1665.8619   -157726.82   -156060.96   -155955.49    299.36646     564432.1   -71.353997    11.798449    957.65494     218.4745    242.78557    100.55743 
 2096900    405.12685    1675.6838   -157745.95   -156070.27   -156455.97   -1093.7879     564974.7   -1325.3073   -1293.5218   -662.53464    313.20444    77.667266    177.58781 
 2097000    401.21321    1659.4962   -157736.33   -156076.83   -156066.73    28.656007    564482.77   -284.35899    34.252394    336.07462    298.42735   -136.69688    29.645538 
 2097100    402.74694      1665.84   -157744.19   -156078.35   -155680.42    1130.5952    563916.81    876.05672    1080.7417    1434.9873    198.89399    169.28536    107.78797 
 2097200    401.38925    1660.2244   -157739.41   -156079.18    -156143.8   -183.37219    564579.85   -402.27772   -438.25328    290.41443    140.32582    49.666706    248.67519 
 2097300    402.14697    1663.3584    -157740.7   -156077.34   -156317.77   -682.04601    564796.89    -1014.292   -831.41171   -200.43432    116.42829    45.856486    56.413086 
 2097400    403.55769    1669.1935   -157743.64   -156074.45   -155921.45    434.39393    564293.13   -71.557744     505.3915    869.34802     90.62783    58.026656    1.3066558 
 2097500    401.30231    1659.8648   -157730.88   -156071.02   -155907.42    464.48251    564297.16    57.714753    288.47947    1047.2533   -41.614398    23.336075    6.3720486 
 2097600    404.85984    1674.5794   -157740.26   -156065.68   -156323.29   -730.74389    564827.35   -775.05995   -836.83414   -580.33756    6.3415556   -162.19123    119.24433 
 2097700    402.23075     1663.705   -157726.83   -156063.12    -156144.8   -231.78207    564578.11   -327.21279   -365.51714   -2.6162954    293.57455    105.11396    11.485847 
 2097800    403.97452    1670.9175   -157732.24   -156061.32   -155821.04    682.32836    564194.34    301.22287    671.33514    1074.4271    105.27938    5.8282113    305.79273 
 2097900    402.94241    1666.6486   -157730.64   -156063.99   -156056.87    20.198555    564461.27   -355.61866    2.4382583    413.77607    397.76863    315.73846    76.237591 
 2098000    403.73359     1669.921   -157741.84   -156071.92   -156245.96   -493.80971    564654.08   -980.95115   -708.39123    207.91325    416.90946    44.154509    128.72291 
 2098100    402.72328    1665.7422   -157747.47   -156081.73   -155974.02    305.84896    564257.88    237.13614   -99.382836    779.79359    382.02913   -53.134354    245.53797 
 2098200    398.26712    1647.3106   -157735.63   -156088.31   -155910.33    505.42004    564206.87    406.72802    204.40474    905.12737    319.66575     240.3982    238.51436 
 2098300    401.49722     1660.671    -157749.8   -156089.13   -156234.89   -413.56297    564682.89   -611.33252   -462.29272   -167.06368    354.94353    142.01734    30.180346 
 2098400    399.95021    1654.2722   -157742.59   -156088.32   -156307.67   -622.23713    564788.23   -1175.3488   -509.21912   -182.14344    22.934412    141.35154   -140.54316 
 2098500    398.69181    1649.0672   -157736.37   -156087.31   -155972.91    324.77892    564313.89   -418.51971    702.19778    690.65868    125.48238    9.2767389    196.34959 
 2098600    400.35261    1655.9366   -157740.39   -156084.45   -155825.43    735.72669    564060.23    229.63626    918.55446    1058.9894    259.21119    99.984797    432.70258 
 2098700    402.22901    1663.6978   -157742.56   -156078.86   -156320.47   -685.39772    564795.09   -1158.9152   -828.98046   -68.297512    172.49733    16.555342     140.5522 
 2098800    400.49525    1656.5266   -157727.98   -156071.45   -156258.96    -531.8773    564822.12   -749.29357   -810.34695   -35.991393    106.24488    119.38461    148.79173 
 2098900    404.73713    1674.0719   -157738.23   -156064.16   -155871.57     546.8781    564225.84    143.10318    551.51873     946.0124    197.06408    30.241947   -68.726671 
 2099000    403.25471    1667.9403   -157729.41   -156061.47   -155908.53    434.24233    564260.37    151.85345    418.49961    732.37392    72.126013   -43.246959    35.035732 
 2099100    403.61211    1669.4186   -157734.23   -156064.81   -156213.36    -421.4675    564691.58   -640.30142   -335.22325   -288.87783    4.3027914   -308.93462     307.5231 
 2099200    400.54254    1656.7222   -157733.39   -156076.66   -156186.13   -310.58353    564685.34    -523.5166   -514.41394    106.17997    74.230578   -45.835763   -61.219902 
 2099300    402.58596    1665.1742   -157750.22   -156085.05   -155931.85     435.0291    564207.49     366.2539    164.11196    774.72143    258.77312    17.497353   -70.722627 
 2099400    400.99189    1658.5808   -157747.76   -156089.18   -156010.23    224.13662     564334.7   -34.246209    152.07342    554.58265    89.203137    240.95226    164.07671 
 2099500    402.38671    1664.3501   -157755.19   -156090.84   -156233.22   -404.04861    564590.96   -900.91447   -599.99762    288.76626    102.63828    174.07388   -72.010178 
 2099600    399.74146    1653.4088   -157746.29   -156092.88    -156114.6    -61.64643    564456.02   -390.18026   -128.14554    333.38651    307.08055   -167.40166    184.72483 
 2099700    402.01225    1662.8012   -157756.16   -156093.36   -155861.89    657.41086    564098.61    209.49093    631.19293    1131.5487    50.100073    19.425786    128.57907 
 2099800    402.30562    1664.0146   -157757.78   -156093.77   -156052.94    115.92493    564328.41   -94.989942   -70.051454    512.81619     236.6232    52.281217    64.835136 
 2099900    401.21224    1659.4922   -157754.58   -156095.09   -156384.71   -821.61713    564783.63    -1156.792   -1069.1754   -238.88393    265.86422    67.626247    119.96576 
 2100000      399.028    1650.4578   -157748.91   -156098.45   -156045.94    149.09085    564361.86   -279.22676    359.72925    366.77006    2.8903738   -146.14246    -25.77861 
Loop time of 17264.5 on 32 procs for 1600000 steps with 32000 atoms

Performance: 8.007 ns/day, 2.997 hours/ns, 92.676 timesteps/s
98.4% CPU use with 32 MPI tasks x no OpenMP threads

MPI task timing breakdown:
Section |  min time  |  avg time  |  max time  |%varavg| %total
---------------------------------------------------------------
Pair    | 11581      | 12063      | 12576      | 205.3 | 69.87
Neigh   | 136.25     | 147.5      | 157.36     |  51.5 |  0.85
Comm    | 2401.8     | 2826.9     | 3297.1     | 413.4 | 16.37
Output  | 22.207     | 22.444     | 22.614     |   2.4 |  0.13
Modify  | 1771.1     | 1865.7     | 1917.3     |  84.2 | 10.81
Other   |            | 339.1      |            |       |  1.96

Nlocal:    1000 ave 1024 max 981 min
Histogram: 2 1 6 4 8 5 4 0 0 2
Nghost:    3688.75 ave 3716 max 3669 min
Histogram: 4 4 2 6 4 6 1 2 1 2
Neighs:    73033.1 ave 75546 max 69662 min
Histogram: 1 0 3 2 2 10 3 8 2 1

Total # of neighbors = 2337059
Ave neighs/atom = 73.0331
Neighbor list builds = 25125
Dangerous builds = 0

Total wall time: 18:57:16
